<LesHouchesEvents version="3.0">
<header>
<!--
#*********************************************************************
#                                                                    *
#                        MadGraph5_aMC@NLO                           *
#                                                                    *
#                           Going Beyond                             *
#                                                                    *
#                   http://madgraph.hep.uiuc.edu                     *
#                   http://madgraph.phys.ucl.ac.be                   *
#                   http://amcatnlo.cern.ch                          *
#                                                                    *
#                     The MadGraph5_aMC@NLO team                     *
#                                                                    *
#....................................................................*
#                                                                    *
# This file contains all the information necessary to reproduce      *
# the events generated:                                              *
#                                                                    *
# 1. software version                                                *
# 2. proc_card          : code generation info including model       *
# 3. param_card         : model primary parameters in the LH format  *
# 4. run_card           : running parameters (collider and cuts)     *
# 5. pythia_card        : present only if pythia has been run        *
# 6. pgs_card           : present only if pgs has been run           *
# 7. delphes_cards      : present only if delphes has been run       *
#                                                                    *
#                                                                    *
#*********************************************************************
-->
<MGVersion>
2.5.5
</MGVersion>
<MG5ProcCard>
#************************************************************
#*                     MadGraph5_aMC@NLO                    *
#*                                                          *
#*                *                       *                 *
#*                  *        * *        *                   *
#*                    * * * * 5 * * * *                     *
#*                  *        * *        *                   *
#*                *                       *                 *
#*                                                          *
#*                                                          *
#*         VERSION 2.5.5                 2017-05-26         *
#*                                                          *
#*    The MadGraph5_aMC@NLO Development Team - Find us at   *
#*    https://server06.fynu.ucl.ac.be/projects/madgraph     *
#*                                                          *
#************************************************************
#*                                                          *
#*               Command File for MadGraph5_aMC@NLO         *
#*                                                          *
#*     run as ./bin/mg5_aMC  filename                       *
#*                                                          *
#************************************************************
set group_subprocesses Auto
set ignore_six_quark_processes False
set loop_optimized_output True
set loop_color_flows False
set gauge unitary
set complex_mass_scheme False
set max_npoint_for_channel 0
import model sm
define p = g u c d s u~ c~ d~ s~
define j = g u c d s u~ c~ d~ s~
define l+ = e+ mu+
define l- = e- mu-
define vl = ve vm vt
define vl~ = ve~ vm~ vt~
import model U1(lmu-ltau)/
generate p p > mu+ mu- dm dm~
output test2
</MG5ProcCard>
<MGProcCard>
#*********************************************************************
#                        MadGraph/MadEvent                           *
#                   http://madgraph.hep.uiuc.edu                     *
#                                                                    *
#                          proc_card.dat                             *
#*********************************************************************
#                                                                    *
#            This Files is generated by MADGRAPH 5                   *
#                                                                    *
# WARNING: This Files is generated for MADEVENT (compatibility issue)*
#          This files is NOT a valid MG4 proc_card.dat               *
#          Running this in MG4 will NEVER reproduce the result of MG5*
#                                                                    *
#*********************************************************************
#*********************************************************************
# Process(es) requested : mg2 input                                  *
#*********************************************************************
# Begin PROCESS # This is TAG. Do not modify this line
p p > mu+ mu- dm dm~           #Process
# Be carefull the coupling are here in MG5 convention
          
end_coup           # End the couplings input

done               # this tells MG there are no more procs
# End PROCESS  # This is TAG. Do not modify this line
#*********************************************************************
# Model information                                                  *
#*********************************************************************
# Begin MODEL  # This is TAG. Do not modify this line
U1(lmu-ltau)
# End   MODEL  # This is TAG. Do not modify this line
#*********************************************************************
# Start multiparticle definitions                                    *
#*********************************************************************
# Begin MULTIPARTICLES # This is TAG. Do not modify this line

# End  MULTIPARTICLES # This is TAG. Do not modify this line
</MGProcCard>
<MGRunCard>
#*********************************************************************
#                       MadGraph5_aMC@NLO                            *
#                                                                    *
#                     run_card.dat MadEvent                          *
#                                                                    *
#  This file is used to set the parameters of the run.               *
#                                                                    *
#  Some notation/conventions:                                        *
#                                                                    *
#   Lines starting with a '# ' are info or comments                  *
#                                                                    *
#   mind the format:   value    = variable     ! comment             *
#*********************************************************************
#
#*******************                                                 
# Running parameters
#*******************                                                 
#                                                                    
#*********************************************************************
# Tag name for the run (one word)                                    *
#*********************************************************************
  tag_1     = run_tag ! name of the run 
#*********************************************************************
# Number of events and rnd seed                                      *
# Warning: Do not generate more than 1M events in a single run       *
# If you want to run Pythia, avoid more than 50k events in a run.    *
#*********************************************************************
  1000 = nevents ! Number of unweighted events requested 
 21 = iseed   ! rnd seed (0=assigned automatically=default))
#*********************************************************************
# Collider type and energy                                           *
# lpp: 0=No PDF, 1=proton, -1=antiproton, 2=photon from proton,      *
#                                         3=photon from electron     *
#*********************************************************************
     1        = lpp1    ! beam 1 type 
     1        = lpp2    ! beam 2 type
     4000.0     = ebeam1  ! beam 1 total energy in GeV
     4000.0     = ebeam2  ! beam 2 total energy in GeV
#*********************************************************************
# Beam polarization from -100 (left-handed) to 100 (right-handed)    *
#*********************************************************************
     0.0     = polbeam1 ! beam polarization for beam 1
     0.0     = polbeam2 ! beam polarization for beam 2
#*********************************************************************
# PDF CHOICE: this automatically fixes also alpha_s and its evol.    *
#*********************************************************************
     nn23lo1    = pdlabel     ! PDF set                                     
     230000    = lhaid     ! if pdlabel=lhapdf, this is the lhapdf number
#*********************************************************************
# Renormalization and factorization scales                           *
#*********************************************************************
 False = fixed_ren_scale  ! if .true. use fixed ren scale
 False        = fixed_fac_scale  ! if .true. use fixed fac scale
 91.188  = scale            ! fixed ren scale
 91.188  = dsqrt_q2fact1    ! fixed fact scale for pdf1
 91.188  = dsqrt_q2fact2    ! fixed fact scale for pdf2
 -1 = dynamical_scale_choice ! Choose one of the preselected dynamical choices
 1.0  = scalefact        ! scale factor for event-by-event scales
#*********************************************************************
# Type and output format
#*********************************************************************
  False     = gridpack  !True = setting up the grid pack
  -1.0 = time_of_flight ! threshold (in mm) below which the invariant livetime is not written (-1 means not written)
  3.0 = lhe_version       ! Change the way clustering information pass to shower.        
  True = clusinfo         ! include clustering tag in output
  average =  event_norm       ! average/sum. Normalization of the weight in the LHEF

#*********************************************************************
# Matching parameter (MLM only)
#*********************************************************************
 0 = ickkw            ! 0 no matching, 1 MLM
 1.0 = alpsfact         ! scale factor for QCD emission vx
 False = chcluster        ! cluster only according to channel diag
 4 = asrwgtflavor     ! highest quark flavor for a_s reweight
 False  = auto_ptj_mjj  ! Automatic setting of ptj and mjj if xqcut >0
                                   ! (turn off for VBF and single top processes) 
 0.0   = xqcut   ! minimum kt jet measure between partons
#*********************************************************************
#
#*********************************************************************
# handling of the helicities:
#  0: sum over all helicities
#  1: importance sampling over helicities
#*********************************************************************
   0  = nhel          ! using helicities importance sampling or not.
#*********************************************************************
# Generation bias, check the wiki page below for more information:   *
#  'cp3.irmp.ucl.ac.be/projects/madgraph/wiki/LOEventGenerationBias' *
#*********************************************************************
 None = bias_module  ! Bias type of bias, [None, ptj_bias, -custom_folder-]
 {} = bias_parameters ! Specifies the parameters of the module.
#
#*******************************                                                 
# Parton level cuts definition *
#*******************************                                     
#                                                                    
#
#*********************************************************************
# BW cutoff (M+/-bwcutoff*Gamma) ! Define on/off-shell for "$" and decay  
#*********************************************************************
  15.0  = bwcutoff      ! (M+/-bwcutoff*Gamma)
#*********************************************************************
# Apply pt/E/eta/dr/mij/kt_durham cuts on decay products or not
# (note that etmiss/ptll/ptheavy/ht/sorted cuts always apply)
#*********************************************************************
   False  = cut_decays    ! Cut decay products 
#*********************************************************************
# Standard Cuts                                                      *
#*********************************************************************
# Minimum and maximum pt's (for max, -1 means no cut)                *
#*********************************************************************
 20.0  = ptj       ! minimum pt for the jets 
 0.0  = ptb       ! minimum pt for the b 
 10.0  = pta       ! minimum pt for the photons 
 10.0  = ptl       ! minimum pt for the charged leptons 
 0.0  = misset    ! minimum missing Et (sum of neutrino's momenta)
 0.0  = ptheavy   ! minimum pt for one heavy final state
 -1.0  = ptjmax    ! maximum pt for the jets
 -1.0  = ptbmax    ! maximum pt for the b
 -1.0  = ptamax    ! maximum pt for the photons
 -1.0  = ptlmax    ! maximum pt for the charged leptons
 -1.0  = missetmax ! maximum missing Et (sum of neutrino's momenta)
#*********************************************************************
# Minimum and maximum E's (in the center of mass frame)              *
#*********************************************************************
  0.0  = ej     ! minimum E for the jets 
  0.0  = eb     ! minimum E for the b 
  0.0  = ea     ! minimum E for the photons 
  0.0  = el     ! minimum E for the charged leptons 
  -1.0   = ejmax ! maximum E for the jets
 -1.0   = ebmax ! maximum E for the b
 -1.0   = eamax ! maximum E for the photons
 -1.0   = elmax ! maximum E for the charged leptons
#*********************************************************************
# Maximum and minimum absolute rapidity (for max, -1 means no cut)   *
#*********************************************************************
  5.0 = etaj    ! max rap for the jets 
  -1.0  = etab    ! max rap for the b
 2.5  = etaa    ! max rap for the photons 
 2.5  = etal    ! max rap for the charged leptons 
 0.0  = etajmin ! min rap for the jets
 0.0  = etabmin ! min rap for the b
 0.0  = etaamin ! min rap for the photons
 0.0  = etalmin ! main rap for the charged leptons
#*********************************************************************
# Minimum and maximum DeltaR distance                                *
#*********************************************************************
 0.4 = drjj    ! min distance between jets 
 0.0   = drbb    ! min distance between b's 
 0.4 = drll    ! min distance between leptons 
 0.4 = draa    ! min distance between gammas 
 0.0   = drbj    ! min distance between b and jet 
 0.4 = draj    ! min distance between gamma and jet 
 0.4 = drjl    ! min distance between jet and lepton 
 0.0   = drab    ! min distance between gamma and b 
 0.0   = drbl    ! min distance between b and lepton 
 0.4 = dral    ! min distance between gamma and lepton 
 -1.0  = drjjmax ! max distance between jets
 -1.0  = drbbmax ! max distance between b's
 -1.0  = drllmax ! max distance between leptons
 -1.0  = draamax ! max distance between gammas
 -1.0  = drbjmax ! max distance between b and jet
 -1.0  = drajmax ! max distance between gamma and jet
 -1.0  = drjlmax ! max distance between jet and lepton
 -1.0  = drabmax ! max distance between gamma and b
 -1.0  = drblmax ! max distance between b and lepton
 -1.0  = dralmax ! maxdistance between gamma and lepton
#*********************************************************************
# Minimum and maximum invariant mass for pairs                       *
# WARNING: for four lepton final state mmll cut require to have      *
#          different lepton masses for each flavor!                  *           
#*********************************************************************
 0.0   = mmjj    ! min invariant mass of a jet pair 
 0.0   = mmbb    ! min invariant mass of a b pair 
 0.0   = mmaa    ! min invariant mass of gamma gamma pair
 0.0   = mmll    ! min invariant mass of l+l- (same flavour) lepton pair
 -1.0  = mmjjmax ! max invariant mass of a jet pair
 -1.0  = mmbbmax ! max invariant mass of a b pair
 -1.0  = mmaamax ! max invariant mass of gamma gamma pair
 -1.0  = mmllmax ! max invariant mass of l+l- (same flavour) lepton pair
#*********************************************************************
# Minimum and maximum invariant mass for all letpons                 *
#*********************************************************************
 0.0   = mmnl    ! min invariant mass for all letpons (l+- and vl) 
 -1.0  = mmnlmax ! max invariant mass for all letpons (l+- and vl) 
#*********************************************************************
# Minimum and maximum pt for 4-momenta sum of leptons                *
#*********************************************************************
 0.0   = ptllmin  ! Minimum pt for 4-momenta sum of leptons(l and vl)
 -1.0  = ptllmax  ! Maximum pt for 4-momenta sum of leptons(l and vl)
#*********************************************************************
# Inclusive cuts                                                     *
#*********************************************************************
 0.0  = xptj ! minimum pt for at least one jet  
 0.0  = xptb ! minimum pt for at least one b 
 0.0  = xpta ! minimum pt for at least one photon 
 0.0  = xptl ! minimum pt for at least one charged lepton 
#*********************************************************************
# Control the pt's of the jets sorted by pt                          *
#*********************************************************************
 0.0   = ptj1min ! minimum pt for the leading jet in pt
 0.0   = ptj2min ! minimum pt for the second jet in pt
 0.0   = ptj3min ! minimum pt for the third jet in pt
 0.0   = ptj4min ! minimum pt for the fourth jet in pt
 -1.0  = ptj1max ! maximum pt for the leading jet in pt 
 -1.0  = ptj2max ! maximum pt for the second jet in pt
 -1.0  = ptj3max ! maximum pt for the third jet in pt
 -1.0  = ptj4max ! maximum pt for the fourth jet in pt
 0   = cutuse  ! reject event if fails any (0) / all (1) jet pt cuts
#*********************************************************************
# Control the pt's of leptons sorted by pt                           *
#*********************************************************************
 0.0   = ptl1min ! minimum pt for the leading lepton in pt
 0.0   = ptl2min ! minimum pt for the second lepton in pt
 0.0   = ptl3min ! minimum pt for the third lepton in pt
 0.0   = ptl4min ! minimum pt for the fourth lepton in pt
 -1.0  = ptl1max ! maximum pt for the leading lepton in pt 
 -1.0  = ptl2max ! maximum pt for the second lepton in pt
 -1.0  = ptl3max ! maximum pt for the third lepton in pt
 -1.0  = ptl4max ! maximum pt for the fourth lepton in pt
#*********************************************************************
# Control the Ht(k)=Sum of k leading jets                            *
#*********************************************************************
 0.0   = htjmin ! minimum jet HT=Sum(jet pt)
 -1.0  = htjmax ! maximum jet HT=Sum(jet pt)
 0.0   = ihtmin  !inclusive Ht for all partons (including b)
 -1.0  = ihtmax  !inclusive Ht for all partons (including b)
 0.0   = ht2min ! minimum Ht for the two leading jets
 0.0   = ht3min ! minimum Ht for the three leading jets
 0.0   = ht4min ! minimum Ht for the four leading jets
 -1.0  = ht2max ! maximum Ht for the two leading jets
 -1.0  = ht3max ! maximum Ht for the three leading jets
 -1.0  = ht4max ! maximum Ht for the four leading jets
#***********************************************************************
# Photon-isolation cuts, according to hep-ph/9801442                   *
# When ptgmin=0, all the other parameters are ignored                  *
# When ptgmin>0, pta and draj are not going to be used                 *
#***********************************************************************
 0.0 = ptgmin ! Min photon transverse momentum
 0.4 = R0gamma ! Radius of isolation code
 1.0 = xn ! n parameter of eq.(3.4) in hep-ph/9801442
 1.0 = epsgamma ! epsilon_gamma parameter of eq.(3.4) in hep-ph/9801442
 True = isoEM ! isolate photons from EM energy (photons and leptons)
#*********************************************************************
# WBF cuts                                                           *
#*********************************************************************
 0.0   = xetamin ! minimum rapidity for two jets in the WBF case  
 0.0   = deltaeta ! minimum rapidity for two jets in the WBF case 
#***********************************************************************
# Turn on either the ktdurham or ptlund cut to activate                *
# CKKW(L) merging with Pythia8 [arXiv:1410.3012, arXiv:1109.4829]      *
#***********************************************************************
 -1.0  =  ktdurham        
 0.4   =  dparameter
 -1.0  =  ptlund
 1, 2, 3, 4, 5, 6, 21  =  pdgs_for_merging_cut ! PDGs for two cuts above   
#*********************************************************************
# maximal pdg code for quark to be considered as a light jet         *
# (otherwise b cuts are applied)                                     *
#*********************************************************************
 4 = maxjetflavor    ! Maximum jet pdg code
#*********************************************************************
#
#*********************************************************************
# Store info for systematics studies                                 *
# WARNING: Do not use for interference type of computation           *
#*********************************************************************
   True  = use_syst      ! Enable systematics studies
#
#**************************************
# Parameter of the systematics study
#  will be used by SysCalc (if installed)
#**************************************                                  
#
0.5 1 2 = sys_scalefact  # factorization/renormalization scale factor
None = sys_alpsfact  # \alpha_s emission scale factors
auto = sys_matchscale # variation of merging scale
# PDF sets and number of members (0 or none for all members).
NNPDF23_lo_as_0130_qed = sys_pdf # list of pdf sets
# MSTW2008nlo68cl.LHgrid 1  = sys_pdf
#
</MGRunCard>
<slha>
######################################################################
## PARAM_CARD AUTOMATICALY GENERATED BY MG5 FOLLOWING UFO MODEL   ####
######################################################################
##                                                                  ##
##  Width set on Auto will be computed following the information    ##
##        present in the decay.py files of the model.               ##
##        See  arXiv:1402.1178 for more details.                    ##
##                                                                  ##
######################################################################

###################################
## INFORMATION FOR CKMBLOCK
###################################
Block ckmblock 
    1 2.277360e-01 # cabi 

###################################
## INFORMATION FOR MASS
###################################
Block mass 
    1 5.040000e-03 # MD 
    2 2.550000e-03 # MU 
    3 1.010000e-01 # MS 
    4 1.270000e+00 # MC 
    5 4.700000e+00 # MB 
    6 1.720000e+02 # MT 
   11 5.110000e-04 # Me 
   13 1.056600e-01 # MMU 
   15 1.777000e+00 # MTA 
   23 9.118760e+01 # MZ 
   25 1.250000e+02 # MH 
  10000 1.000000e+02 # MZp 
  10001 1.000000e+02 # MHmt 
  10002 1.000000e+02 # Mdm 
## Dependent parameters, given by model restrictions.
## Those values should be edited following the 
## analytical expression. MG5 ignores those values 
## but they are important for interfacing the output of MG5
## to external program such as Pythia.
  12 0.000000 # ve : 0.0 
  14 0.000000 # vm : 0.0 
  16 0.000000 # vt : 0.0 
  21 0.000000 # g : 0.0 
  22 0.000000 # a : 0.0 
  24 79.824360 # w+ : cmath.sqrt(MZ__exp__2/2. + cmath.sqrt(MZ__exp__4/4. - (aEW*cmath.pi*MZ__exp__2)/(Gf*sqrt__2))) 

###################################
## INFORMATION FOR NPINPUTS
###################################
Block npinputs 
    1 1.000000e+00 # gmt 
    1   1 8.294000e-01 # PMNS1x1 
    1   2 5.391000e-01 # PMNS1x2 
    1   3 -1.463000e-01 # PMNS1x3 
    2 2.000000e+02 # vmt 
    2   1 -3.791000e-01 # PMNS2x1 
    2   2 6.547000e-01 # PMNS2x2 
    2   3 6.539000e-01 # PMNS2x3 
    3 0.000000e+00 # amt 
    3   1 4.103000e-01 # PMNS3x1 
    3   2 -5.298000e-01 # PMNS3x2 
    3   3 7.423000e-01 # PMNS3x3 
    4 1.000000e+00 # nmt 
    5 1.000000e+00 # lamdh 
    6 1.000000e+00 # lamdh__2 
    7 1.000000e+00 # lamDM 

###################################
## INFORMATION FOR SMINPUTS
###################################
Block sminputs 
    1 1.279000e+02 # aEWM1 
    2 1.166370e-05 # Gf 
    3 1.184000e-01 # aS 

###################################
## INFORMATION FOR YUKAWA
###################################
Block yukawa 
    1 5.040000e-03 # ymdo 
    2 2.550000e-03 # ymup 
    3 1.010000e-01 # yms 
    4 1.270000e+00 # ymc 
    5 4.700000e+00 # ymb 
    6 1.720000e+02 # ymt 
   11 5.110000e-04 # yme 
   13 1.056600e-01 # ymm 
   15 1.777000e+00 # ymtau 

###################################
## INFORMATION FOR DECAY
###################################
DECAY   6 1.508336e+00 # WT 
DECAY  23 2.495200e+00 # WZ 
DECAY  24 2.085000e+00 # WW 
DECAY  25 4.070000e-03 # WH 
DECAY 10000 1.000000e+01 # WZp 
## Dependent parameters, given by model restrictions.
## Those values should be edited following the 
## analytical expression. MG5 ignores those values 
## but they are important for interfacing the output of MG5
## to external program such as Pythia.
DECAY  1 0.000000 # d : 0.0 
DECAY  2 0.000000 # u : 0.0 
DECAY  3 0.000000 # s : 0.0 
DECAY  4 0.000000 # c : 0.0 
DECAY  5 0.000000 # b : 0.0 
DECAY  11 0.000000 # e- : 0.0 
DECAY  12 0.000000 # ve : 0.0 
DECAY  13 0.000000 # mu- : 0.0 
DECAY  14 0.000000 # vm : 0.0 
DECAY  15 0.000000 # ta- : 0.0 
DECAY  16 0.000000 # vt : 0.0 
DECAY  21 0.000000 # g : 0.0 
DECAY  22 0.000000 # a : 0.0 
DECAY  10001 0.000000 # hmt : 0.0 
DECAY  10002 0.000000 # dm : 0.0 
#===========================================================
# QUANTUM NUMBERS OF NEW STATE(S) (NON SM PDG CODE)
#===========================================================

Block QNUMBERS 10000  # zp 
        1 0  # 3 times electric charge
        2 3  # number of spin states (2S+1)
        3 1  # colour rep (1: singlet, 3: triplet, 8: octet)
        4 0  # Particle/Antiparticle distinction (0=own anti)
Block QNUMBERS 10001  # hmt 
        1 0  # 3 times electric charge
        2 1  # number of spin states (2S+1)
        3 1  # colour rep (1: singlet, 3: triplet, 8: octet)
        4 0  # Particle/Antiparticle distinction (0=own anti)
Block QNUMBERS 10002  # dm 
        1 0  # 3 times electric charge
        2 1  # number of spin states (2S+1)
        3 1  # colour rep (1: singlet, 3: triplet, 8: octet)
        4 1  # Particle/Antiparticle distinction (0=own anti)
</slha>
<MGGenerationInfo>
#  Number of Events        :       1000
#  Integrated weight (pb)  :       2.61411983647e-09
</MGGenerationInfo>
</header>
<init>
2212 2212 4.000000e+03 4.000000e+03 0 0 247000 247000 -4 1
2.614120e-09 2.674448e-11 2.614120e-09 1
<generator name='MadGraph5_aMC@NLO' version='2.5.5'>please cite 1405.0301 </generator>
</init>
<event>
 6      1 +2.6141198e-09 4.11503300e+02 7.81860800e-03 1.03986800e-01
       -4 -1    0    0    0  501 -0.0000000000e+00 +0.0000000000e+00 +7.9426843682e+02 7.9426945216e+02 1.2700000000e+00 0.0000e+00 -1.0000e+00
        4 -1    0    0  501    0 +0.0000000000e+00 -0.0000000000e+00 -5.3290408721e+01 5.3305539690e+01 1.2700000000e+00 0.0000e+00 -1.0000e+00
      -13  1    1    2    0    0 +4.2859589360e+01 -5.6726611550e+01 +7.2589940465e+01 1.0160789083e+02 1.0566000000e-01 0.0000e+00 -1.0000e+00
       13  1    1    2    0    0 -3.9763836170e+01 -1.0141494821e+01 +5.4541783320e+01 6.8255621571e+01 1.0566000000e-01 0.0000e+00 1.0000e+00
    10002  1    1    2    0    0 -4.1806743486e+01 +1.1223037123e+02 +4.5322685046e+02 4.7933082313e+02 1.0000000000e+02 0.0000e+00 0.0000e+00
   -10002  1    1    2    0    0 +3.8710990297e+01 -4.5362264862e+01 +1.6061945386e+02 1.9838065632e+02 1.0000000000e+02 0.0000e+00 0.0000e+00
<mgrwt>
<rscale>  0 0.41150325E+03</rscale>
<asrwt>0</asrwt>
<pdfrwt beam="1">  1        4 0.13324620E-01 0.41150325E+03</pdfrwt>
<pdfrwt beam="2">  1       -4 0.19856913E+00 0.41150325E+03</pdfrwt>
<totfact> 0.12735502E+01</totfact>
</mgrwt>
</event>
<event>
 6      1 +2.6141198e-09 5.21087700e+02 7.81860800e-03 1.00841700e-01
       -4 -1    0    0    0  501 -0.0000000000e+00 +0.0000000000e+00 +2.0651303702e+02 2.0651694206e+02 1.2700000000e+00 0.0000e+00 1.0000e+00
        4 -1    0    0  501    0 +0.0000000000e+00 -0.0000000000e+00 -3.2870270144e+02 3.2870515487e+02 1.2700000000e+00 0.0000e+00 1.0000e+00
      -13  1    1    2    0    0 +5.6189020063e+00 -7.7551140241e+01 -4.0975832495e+01 8.7890735718e+01 1.0566000000e-01 0.0000e+00 -1.0000e+00
       13  1    1    2    0    0 +2.7984409789e+01 +4.9380449596e+00 +2.5978052668e+01 3.8501712478e+01 1.0566000000e-01 0.0000e+00 1.0000e+00
    10002  1    1    2    0    0 -1.4653591750e+02 +8.6798834388e+01 +3.5544259687e+01 2.0067438094e+02 1.0000000000e+02 0.0000e+00 0.0000e+00
   -10002  1    1    2    0    0 +1.1293260570e+02 -1.4185739107e+01 -1.4273614428e+02 2.0815526779e+02 1.0000000000e+02 0.0000e+00 0.0000e+00
<mgrwt>
<rscale>  0 0.52108769E+03</rscale>
<asrwt>0</asrwt>
<pdfrwt beam="1">  1        4 0.82176470E-01 0.52108769E+03</pdfrwt>
<pdfrwt beam="2">  1       -4 0.51629054E-01 0.52108769E+03</pdfrwt>
<totfact> 0.91808492E+00</totfact>
</mgrwt>
</event>
<event>
 6      1 +2.6141198e-09 6.81687100e+02 7.81860800e-03 9.74907200e-02
        4 -1    0    0  501    0 +0.0000000000e+00 +0.0000000000e+00 +6.9781883531e+02 6.9781999099e+02 1.2700000000e+00 0.0000e+00 1.0000e+00
       -4 -1    0    0    0  501 -0.0000000000e+00 -0.0000000000e+00 -1.6647837748e+02 1.6648322159e+02 1.2700000000e+00 0.0000e+00 1.0000e+00
      -13  1    1    2    0    0 -4.1188788245e+01 +9.7318412794e+01 +3.6520778336e+00 1.0573901164e+02 1.0566000000e-01 0.0000e+00 1.0000e+00
       13  1    1    2    0    0 +4.7346325967e+01 +3.4249386837e+01 +5.2288678828e+01 7.8414362070e+01 1.0566000000e-01 0.0000e+00 -1.0000e+00
    10002  1    1    2    0    0 -6.0830717211e+01 -6.7944994488e+00 +4.9621926673e+02 5.0988243945e+02 1.0000000000e+02 0.0000e+00 0.0000e+00
   -10002  1    1    2    0    0 +5.4673179488e+01 -1.2477330018e+02 -2.0819565564e+01 1.7026739942e+02 1.0000000000e+02 0.0000e+00 0.0000e+00
<mgrwt>
<rscale>  0 0.68168714E+03</rscale>
<asrwt>0</asrwt>
<pdfrwt beam="1">  1        4 0.17445546E+00 0.68168714E+03</pdfrwt>
<pdfrwt beam="2">  1       -4 0.41620345E-01 0.68168714E+03</pdfrwt>
<totfact> 0.21874429E+00</totfact>
</mgrwt>
</event>
<event>
 6      1 +2.6141198e-09 3.92839600e+02 7.81860800e-03 1.04628800e-01
       -4 -1    0    0    0  501 -0.0000000000e+00 +0.0000000000e+00 +9.2645283604e+01 9.2653987901e+01 1.2700000000e+00 0.0000e+00 1.0000e+00
        4 -1    0    0  501    0 +0.0000000000e+00 -0.0000000000e+00 -4.1640571431e+02 4.1640765100e+02 1.2700000000e+00 0.0000e+00 1.0000e+00
      -13  1    1    2    0    0 +1.0809132689e+01 +4.6371158474e+01 +8.2382918464e+00 4.8321861556e+01 1.0566000000e-01 0.0000e+00 -1.0000e+00
       13  1    1    2    0    0 +8.8800356979e+00 -5.0394471777e+01 -1.9439401837e+01 5.4739011020e+01 1.0566000000e-01 0.0000e+00 1.0000e+00
    10002  1    1    2    0    0 +5.1028201428e+01 -4.0685647965e+01 -9.5980514784e+01 1.5320397681e+02 1.0000000000e+02 0.0000e+00 0.0000e+00
   -10002  1    1    2    0    0 -7.0717369814e+01 +4.4708961268e+01 -2.1657880594e+02 2.5279678952e+02 1.0000000000e+02 0.0000e+00 0.0000e+00
<mgrwt>
<rscale>  0 0.39283958E+03</rscale>
<asrwt>0</asrwt>
<pdfrwt beam="1">  1        4 0.10410275E+00 0.39283958E+03</pdfrwt>
<pdfrwt beam="2">  1       -4 0.23162652E-01 0.39283958E+03</pdfrwt>
<totfact> 0.25299668E+01</totfact>
</mgrwt>
</event>
<event>
 6      1 +2.6141198e-09 6.56700900e+02 7.81860800e-03 9.79428600e-02
       -4 -1    0    0    0  501 -0.0000000000e+00 +0.0000000000e+00 +3.1195186604e+02 3.1195445121e+02 1.2700000000e+00 0.0000e+00 1.0000e+00
        4 -1    0    0  501    0 +0.0000000000e+00 -0.0000000000e+00 -3.4560588112e+02 3.4560821455e+02 1.2700000000e+00 0.0000e+00 1.0000e+00
      -13  1    1    2    0    0 +4.7469317807e-03 +2.1707405934e+01 +5.9009437142e+01 6.2875562270e+01 1.0566000000e-01 0.0000e+00 -1.0000e+00
       13  1    1    2    0    0 -2.5082862669e+01 +6.6786944036e+01 -2.2298558485e+01 7.4745453158e+01 1.0566000000e-01 0.0000e+00 1.0000e+00
    10002  1    1    2    0    0 -1.1885832554e+01 -2.7265330117e+02 -9.4858268963e+01 3.0574366198e+02 1.0000000000e+02 0.0000e+00 0.0000e+00
   -10002  1    1    2    0    0 +3.6963948291e+01 +1.8415895120e+02 +2.4493375228e+01 2.1419798834e+02 1.0000000000e+02 0.0000e+00 0.0000e+00
<mgrwt>
<rscale>  0 0.65670090E+03</rscale>
<asrwt>0</asrwt>
<pdfrwt beam="1">  1        4 0.86402085E-01 0.65670090E+03</pdfrwt>
<pdfrwt beam="2">  1       -4 0.77988581E-01 0.65670090E+03</pdfrwt>
<totfact> 0.33543647E+00</totfact>
</mgrwt>
</event>
<event>
 6      1 +2.6141198e-09 4.69344000e+02 7.81860800e-03 1.02210600e-01
       -4 -1    0    0    0  501 -0.0000000000e+00 +0.0000000000e+00 +2.7730717166e+02 2.7731007979e+02 1.2700000000e+00 0.0000e+00 -1.0000e+00
        4 -1    0    0  501    0 +0.0000000000e+00 -0.0000000000e+00 -1.9858589047e+02 1.9858995139e+02 1.2700000000e+00 0.0000e+00 -1.0000e+00
      -13  1    1    2    0    0 -4.7706169930e+01 -5.2625552595e+01 -7.9547348611e+01 1.0664482768e+02 1.0566000000e-01 0.0000e+00 1.0000e+00
       13  1    1    2    0    0 -3.1441770911e+01 -8.1618890035e-01 +2.5145204297e+01 4.0268394375e+01 1.0566000000e-01 0.0000e+00 -1.0000e+00
    10002  1    1    2    0    0 +4.2395357993e+01 +1.2889410862e+02 +5.7387672841e+01 1.7805730148e+02 1.0000000000e+02 0.0000e+00 0.0000e+00
   -10002  1    1    2    0    0 +3.6752582848e+01 -7.5452367120e+01 +7.5735752659e+01 1.5092950765e+02 1.0000000000e+02 0.0000e+00 0.0000e+00
<mgrwt>
<rscale>  0 0.46934401E+03</rscale>
<asrwt>0</asrwt>
<pdfrwt beam="1">  1        4 0.49647344E-01 0.46934401E+03</pdfrwt>
<pdfrwt beam="2">  1       -4 0.69327663E-01 0.46934401E+03</pdfrwt>
<totfact> 0.14512101E+01</totfact>
</mgrwt>
</event>
<event>
 6      1 +2.6141198e-09 3.32025000e+02 7.81860800e-03 1.07024400e-01
        4 -1    0    0  501    0 +0.0000000000e+00 +0.0000000000e+00 +2.9682422089e+02 2.9682693781e+02 1.2700000000e+00 0.0000e+00 1.0000e+00
       -4 -1    0    0    0  501 -0.0000000000e+00 -0.0000000000e+00 -9.2842608331e+01 9.2851294130e+01 1.2700000000e+00 0.0000e+00 1.0000e+00
      -13  1    1    2    0    0 -2.0380097847e+01 +2.2484400732e+01 -1.7080852035e+01 3.4823315965e+01 1.0566000000e-01 0.0000e+00 -1.0000e+00
       13  1    1    2    0    0 +4.2730785252e+01 -1.6239155482e+01 +5.8911832621e+01 7.4567052817e+01 1.0566000000e-01 0.0000e+00 1.0000e+00
    10002  1    1    2    0    0 +3.5764272447e+01 +2.1020661551e+01 +6.1190523384e+01 1.2435928412e+02 1.0000000000e+02 0.0000e+00 0.0000e+00
   -10002  1    1    2    0    0 -5.8114959853e+01 -2.7265906801e+01 +1.0096010859e+02 1.5592857903e+02 1.0000000000e+02 0.0000e+00 0.0000e+00
<mgrwt>
<rscale>  0 0.33202504E+03</rscale>
<asrwt>0</asrwt>
<pdfrwt beam="1">  1        4 0.74207480E-01 0.33202504E+03</pdfrwt>
<pdfrwt beam="2">  1       -4 0.23212077E-01 0.33202504E+03</pdfrwt>
<totfact> 0.54123587E+01</totfact>
</mgrwt>
</event>
<event>
 6      1 +2.6141198e-09 4.02691000e+02 7.81860800e-03 1.04285200e-01
       -4 -1    0    0    0  501 -0.0000000000e+00 +0.0000000000e+00 +1.3746616340e+02 1.3747202981e+02 1.2700000000e+00 0.0000e+00 1.0000e+00
        4 -1    0    0  501    0 +0.0000000000e+00 -0.0000000000e+00 -2.9489549487e+02 2.9489822955e+02 1.2700000000e+00 0.0000e+00 1.0000e+00
      -13  1    1    2    0    0 -8.3398149141e+01 +2.3021645214e+01 +4.4082583792e+00 8.6629621577e+01 1.0566000000e-01 0.0000e+00 -1.0000e+00
       13  1    1    2    0    0 +7.3843032054e+01 -3.0321265636e+00 -4.9180974037e+01 8.8773681605e+01 1.0566000000e-01 0.0000e+00 1.0000e+00
    10002  1    1    2    0    0 +5.0497979725e+01 +1.6062723687e+01 -7.9573897274e+01 1.3834761355e+02 1.0000000000e+02 0.0000e+00 0.0000e+00
   -10002  1    1    2    0    0 -4.0942862638e+01 -3.6052242338e+01 -3.3082718537e+01 1.1861934262e+02 1.0000000000e+02 0.0000e+00 0.0000e+00
<mgrwt>
<rscale>  0 0.40269101E+03</rscale>
<asrwt>0</asrwt>
<pdfrwt beam="1">  1        4 0.73724948E-01 0.40269101E+03</pdfrwt>
<pdfrwt beam="2">  1       -4 0.34367616E-01 0.40269101E+03</pdfrwt>
<totfact> 0.26368729E+01</totfact>
</mgrwt>
</event>
<event>
 6      1 +2.6141198e-09 4.19822200e+02 7.81860800e-03 1.03712400e-01
       -4 -1    0    0    0  501 -0.0000000000e+00 +0.0000000000e+00 +8.2338711598e+02 8.2338809541e+02 1.2700000000e+00 0.0000e+00 1.0000e+00
        4 -1    0    0  501    0 +0.0000000000e+00 -0.0000000000e+00 -5.3505381114e+01 5.3520451308e+01 1.2700000000e+00 0.0000e+00 1.0000e+00
      -13  1    1    2    0    0 +3.2293664046e+01 +1.7526603096e+01 +8.7986609072e+00 3.7782140640e+01 1.0566000000e-01 0.0000e+00 1.0000e+00
       13  1    1    2    0    0 +3.8014499962e+00 +7.2005484919e+01 +1.8604209366e+02 1.9952672167e+02 1.0566000000e-01 0.0000e+00 -1.0000e+00
    10002  1    1    2    0    0 +6.0461098531e+01 -1.7132420882e+01 +1.8789679616e+02 2.2193303109e+02 1.0000000000e+02 0.0000e+00 0.0000e+00
   -10002  1    1    2    0    0 -9.6556212573e+01 -7.2399667133e+01 +3.8714418414e+02 4.1766665332e+02 1.0000000000e+02 0.0000e+00 0.0000e+00
<mgrwt>
<rscale>  0 0.41982224E+03</rscale>
<asrwt>0</asrwt>
<pdfrwt beam="1">  1        4 0.13378351E-01 0.41982224E+03</pdfrwt>
<pdfrwt beam="2">  1       -4 0.20584879E+00 0.41982224E+03</pdfrwt>
<totfact> 0.11364498E+01</totfact>
</mgrwt>
</event>
<event>
 6      1 +2.6141198e-09 3.52708800e+02 7.81860800e-03 1.06150900e-01
        4 -1    0    0  501    0 +0.0000000000e+00 +0.0000000000e+00 +7.2494792904e+02 7.2494904146e+02 1.2700000000e+00 0.0000e+00 1.0000e+00
       -4 -1    0    0    0  501 -0.0000000000e+00 -0.0000000000e+00 -4.2890305373e+01 4.2909103871e+01 1.2700000000e+00 0.0000e+00 1.0000e+00
      -13  1    1    2    0    0 -1.8939438529e+01 +4.8017845090e+01 +1.4247080249e+02 1.5153335113e+02 1.0566000000e-01 0.0000e+00 1.0000e+00
       13  1    1    2    0    0 +1.6129929162e+01 -4.1305836532e+01 +1.2064175909e+02 1.2853323285e+02 1.0566000000e-01 0.0000e+00 -1.0000e+00
    10002  1    1    2    0    0 -1.5952026750e+01 -3.5434024880e+01 +3.3806634987e+02 3.5468139814e+02 1.0000000000e+02 0.0000e+00 0.0000e+00
   -10002  1    1    2    0    0 +1.8761536117e+01 +2.8722016323e+01 +8.0878712216e+01 1.3311016321e+02 1.0000000000e+02 0.0000e+00 0.0000e+00
<mgrwt>
<rscale>  0 0.35270885E+03</rscale>
<asrwt>0</asrwt>
<pdfrwt beam="1">  1        4 0.18123948E+00 0.35270885E+03</pdfrwt>
<pdfrwt beam="2">  1       -4 0.10725065E-01 0.35270885E+03</pdfrwt>
<totfact> 0.23991657E+01</totfact>
</mgrwt>
</event>
<event>
 6      1 +2.6141198e-09 4.37863000e+02 7.81860800e-03 1.03140500e-01
       -4 -1    0    0    0  501 -0.0000000000e+00 +0.0000000000e+00 +2.9602068815e+01 2.9629299319e+01 1.2700000000e+00 0.0000e+00 1.0000e+00
        4 -1    0    0  501    0 +0.0000000000e+00 -0.0000000000e+00 -1.6184055480e+03 1.6184060463e+03 1.2700000000e+00 0.0000e+00 1.0000e+00
      -13  1    1    2    0    0 +5.7426926894e+01 -5.7065673728e+01 -2.7428447602e+02 2.8598309041e+02 1.0566000000e-01 0.0000e+00 1.0000e+00
       13  1    1    2    0    0 -1.8114627190e+01 +1.0864617547e+01 -1.7445412860e+01 2.7395861486e+01 1.0566000000e-01 0.0000e+00 -1.0000e+00
    10002  1    1    2    0    0 -3.8512968081e+00 +4.4666370236e+01 -1.1390587301e+03 1.1443184468e+03 1.0000000000e+02 0.0000e+00 0.0000e+00
   -10002  1    1    2    0    0 -3.5461002896e+01 +1.5346859452e+00 -1.5801486024e+02 1.9033794694e+02 1.0000000000e+02 0.0000e+00 0.0000e+00
<mgrwt>
<rscale>  0 0.43786300E+03</rscale>
<asrwt>0</asrwt>
<pdfrwt beam="1">  1        4 0.40460455E+00 0.43786300E+03</pdfrwt>
<pdfrwt beam="2">  1       -4 0.74039888E-02 0.43786300E+03</pdfrwt>
<totfact> 0.18152040E+00</totfact>
</mgrwt>
</event>
<event>
 6      1 +2.6141198e-09 3.14160100e+02 7.81860800e-03 1.07836900e-01
        4 -1    0    0  501    0 +0.0000000000e+00 +0.0000000000e+00 +2.9131024046e+02 2.9131300880e+02 1.2700000000e+00 0.0000e+00 1.0000e+00
       -4 -1    0    0    0  501 -0.0000000000e+00 -0.0000000000e+00 -8.4692651222e+01 8.4702172764e+01 1.2700000000e+00 0.0000e+00 1.0000e+00
      -13  1    1    2    0    0 +9.3443992743e-02 +3.4304395806e+01 +3.3051828379e+01 4.7636486296e+01 1.0566000000e-01 0.0000e+00 1.0000e+00
       13  1    1    2    0    0 -3.2523684146e+01 -2.0949746447e+01 -5.4480888864e+00 3.9068846197e+01 1.0566000000e-01 0.0000e+00 -1.0000e+00
    10002  1    1    2    0    0 -3.0581629377e+01 -2.5268623427e+01 +9.7942634169e+01 1.4548710930e+02 1.0000000000e+02 0.0000e+00 0.0000e+00
   -10002  1    1    2    0    0 +6.3011869530e+01 +1.1913974067e+01 +8.1071215576e+01 1.4382273977e+02 1.0000000000e+02 0.0000e+00 0.0000e+00
<mgrwt>
<rscale>  0 0.31416013E+03</rscale>
<asrwt>0</asrwt>
<pdfrwt beam="1">  1        4 0.72829096E-01 0.31416013E+03</pdfrwt>
<pdfrwt beam="2">  1       -4 0.21174699E-01 0.31416013E+03</pdfrwt>
<totfact> 0.66502944E+01</totfact>
</mgrwt>
</event>
<event>
 6      1 +2.6141198e-09 5.73365400e+02 7.81860800e-03 9.96225900e-02
       -4 -1    0    0    0  501 -0.0000000000e+00 +0.0000000000e+00 +1.4836222087e+02 1.4836765645e+02 1.2700000000e+00 0.0000e+00 -1.0000e+00
        4 -1    0    0  501    0 +0.0000000000e+00 -0.0000000000e+00 -5.5394522623e+02 5.5394668206e+02 1.2700000000e+00 0.0000e+00 -1.0000e+00
      -13  1    1    2    0    0 +7.3242191631e+01 -1.1297846965e+01 -2.8739950309e+01 7.9486199360e+01 1.0566000000e-01 0.0000e+00 1.0000e+00
       13  1    1    2    0    0 -2.8310638838e+01 +1.9095205016e+01 -2.9020264492e+01 4.4814127697e+01 1.0566000000e-01 0.0000e+00 -1.0000e+00
    10002  1    1    2    0    0 -1.3607443300e+02 +6.1979916671e+01 -3.8178113554e+02 4.2203625062e+02 1.0000000000e+02 0.0000e+00 0.0000e+00
   -10002  1    1    2    0    0 +9.1142880213e+01 -6.9777274722e+01 +3.3958344976e+01 1.5597776083e+02 1.0000000000e+02 0.0000e+00 0.0000e+00
<mgrwt>
<rscale>  0 0.57336538E+03</rscale>
<asrwt>0</asrwt>
<pdfrwt beam="1">  1        4 0.13848716E+00 0.57336538E+03</pdfrwt>
<pdfrwt beam="2">  1       -4 0.37091418E-01 0.57336538E+03</pdfrwt>
<totfact> 0.51261042E+00</totfact>
</mgrwt>
</event>
<event>
 6      1 +2.6141198e-09 3.87071300e+02 7.81860800e-03 1.04835100e-01
       -4 -1    0    0    0  501 -0.0000000000e+00 +0.0000000000e+00 +6.7415417356e+01 6.7427378692e+01 1.2700000000e+00 0.0000e+00 -1.0000e+00
        4 -1    0    0  501    0 +0.0000000000e+00 -0.0000000000e+00 -5.5553876596e+02 5.5554021761e+02 1.2700000000e+00 0.0000e+00 -1.0000e+00
      -13  1    1    2    0    0 -2.8998478821e+01 -1.3452482749e+01 -5.8295452895e+00 3.2494243003e+01 1.0566000000e-01 0.0000e+00 -1.0000e+00
       13  1    1    2    0    0 -2.1856023656e+01 +3.8875743655e+01 -1.5791392957e+02 1.6409091849e+02 1.0566000000e-01 0.0000e+00 1.0000e+00
    10002  1    1    2    0    0 -4.5369383511e+01 +4.6286968615e+01 -1.1971574243e+02 1.6891632073e+02 1.0000000000e+02 0.0000e+00 0.0000e+00
   -10002  1    1    2    0    0 +9.6223885988e+01 -7.1710229522e+01 -2.0466413132e+02 2.5746611408e+02 1.0000000000e+02 0.0000e+00 0.0000e+00
<mgrwt>
<rscale>  0 0.38707134E+03</rscale>
<asrwt>0</asrwt>
<pdfrwt beam="1">  1        4 0.13888635E+00 0.38707134E+03</pdfrwt>
<pdfrwt beam="2">  1       -4 0.16855533E-01 0.38707134E+03</pdfrwt>
<totfact> 0.22212609E+01</totfact>
</mgrwt>
</event>
<event>
 6      1 +2.6141198e-09 5.35663100e+02 7.81860800e-03 1.00486800e-01
       -4 -1    0    0    0  501 -0.0000000000e+00 +0.0000000000e+00 +2.6410859359e+02 2.6411164705e+02 1.2700000000e+00 0.0000e+00 1.0000e+00
        4 -1    0    0  501    0 +0.0000000000e+00 -0.0000000000e+00 -2.7160089039e+02 2.7160385962e+02 1.2700000000e+00 0.0000e+00 1.0000e+00
      -13  1    1    2    0    0 -2.3923693654e+01 +6.4529145508e+01 +2.5698600608e+00 6.8869217237e+01 1.0566000000e-01 0.0000e+00 -1.0000e+00
       13  1    1    2    0    0 +4.7324283121e+01 -8.9881657338e+00 +1.8497009485e+01 5.1599664923e+01 1.0566000000e-01 0.0000e+00 1.0000e+00
    10002  1    1    2    0    0 +1.3490813058e+02 -8.1756997521e+01 +7.3107955611e+01 2.0057214042e+02 1.0000000000e+02 0.0000e+00 0.0000e+00
   -10002  1    1    2    0    0 -1.5830872005e+02 +2.6216017747e+01 -1.0166712196e+02 2.1467448408e+02 1.0000000000e+02 0.0000e+00 0.0000e+00
<mgrwt>
<rscale>  0 0.53566311E+03</rscale>
<asrwt>0</asrwt>
<pdfrwt beam="1">  1        4 0.67900975E-01 0.53566311E+03</pdfrwt>
<pdfrwt beam="2">  1       -4 0.66027901E-01 0.53566311E+03</pdfrwt>
<totfact> 0.83200411E+00</totfact>
</mgrwt>
</event>
<event>
 6      1 +2.6141198e-09 4.37162200e+02 7.81860800e-03 1.03162100e-01
        4 -1    0    0  501    0 +0.0000000000e+00 +0.0000000000e+00 +6.1591966671e+02 6.1592097606e+02 1.2700000000e+00 0.0000e+00 -1.0000e+00
       -4 -1    0    0    0  501 -0.0000000000e+00 -0.0000000000e+00 -7.7564715065e+01 7.7575111493e+01 1.2700000000e+00 0.0000e+00 -1.0000e+00
      -13  1    1    2    0    0 -2.1435930613e+01 +7.0588446874e+01 +1.7312795865e+02 1.8819014103e+02 1.0566000000e-01 0.0000e+00 1.0000e+00
       13  1    1    2    0    0 +1.5904779617e+01 -6.0633940239e+00 -5.4985205159e+00 1.7887751498e+01 1.0566000000e-01 0.0000e+00 -1.0000e+00
    10002  1    1    2    0    0 +1.2090977708e+02 -2.8543586025e+01 +1.8071744251e+02 2.4102428202e+02 1.0000000000e+02 0.0000e+00 0.0000e+00
   -10002  1    1    2    0    0 -1.1537862608e+02 -3.5981466825e+01 +1.9000807101e+02 2.4639391299e+02 1.0000000000e+02 0.0000e+00 0.0000e+00
<mgrwt>
<rscale>  0 0.43716218E+03</rscale>
<asrwt>0</asrwt>
<pdfrwt beam="1">  1        4 0.15398138E+00 0.43716218E+03</pdfrwt>
<pdfrwt beam="2">  1       -4 0.19392643E-01 0.43716218E+03</pdfrwt>
<totfact> 0.13250893E+01</totfact>
</mgrwt>
</event>
<event>
 6      1 +2.6141198e-09 4.44768800e+02 7.81860800e-03 1.02929400e-01
        4 -1    0    0  501    0 +0.0000000000e+00 +0.0000000000e+00 +7.6323576167e+01 7.6334141633e+01 1.2700000000e+00 0.0000e+00 1.0000e+00
       -4 -1    0    0    0  501 -0.0000000000e+00 -0.0000000000e+00 -6.4790656800e+02 6.4790781270e+02 1.2700000000e+00 0.0000e+00 1.0000e+00
      -13  1    1    2    0    0 -5.9386087999e+01 -7.0152384828e+01 -2.1776040727e+01 9.4457777121e+01 1.0566000000e-01 0.0000e+00 -1.0000e+00
       13  1    1    2    0    0 -2.2009756797e+01 +1.4368256426e+01 -6.3674489672e+01 6.8886341070e+01 1.0566000000e-01 0.0000e+00 1.0000e+00
    10002  1    1    2    0    0 -1.5189675409e+01 -2.4858439284e+01 -2.8500148900e+02 3.0343783049e+02 1.0000000000e+02 0.0000e+00 0.0000e+00
   -10002  1    1    2    0    0 +9.6585520205e+01 +8.0642567686e+01 -2.0113097244e+02 2.5746000565e+02 1.0000000000e+02 0.0000e+00 0.0000e+00
<mgrwt>
<rscale>  0 0.44476881E+03</rscale>
<asrwt>0</asrwt>
<pdfrwt beam="1">  1        4 0.19082372E-01 0.44476881E+03</pdfrwt>
<pdfrwt beam="2">  1       -4 0.16197810E+00 0.44476881E+03</pdfrwt>
<totfact> 0.11923688E+01</totfact>
</mgrwt>
</event>
<event>
 6      1 +2.6141198e-09 4.48096600e+02 7.81860800e-03 1.02829100e-01
       -4 -1    0    0    0  501 -0.0000000000e+00 +0.0000000000e+00 +3.1885722484e+02 3.1885975402e+02 1.2700000000e+00 0.0000e+00 1.0000e+00
        4 -1    0    0  501    0 +0.0000000000e+00 -0.0000000000e+00 -1.5742410622e+02 1.5742922892e+02 1.2700000000e+00 0.0000e+00 1.0000e+00
      -13  1    1    2    0    0 -3.1128553709e+01 +6.5207143418e+00 +2.8373730325e+01 4.2621430151e+01 1.0566000000e-01 0.0000e+00 1.0000e+00
       13  1    1    2    0    0 +3.9101189233e+01 -3.4891195505e+01 -3.9316261171e+01 6.5513953321e+01 1.0566000000e-01 0.0000e+00 -1.0000e+00
    10002  1    1    2    0    0 -5.3445994357e-01 -4.2312807872e+01 -4.5800809017e+01 1.1784894342e+02 1.0000000000e+02 0.0000e+00 0.0000e+00
   -10002  1    1    2    0    0 -7.4381755809e+00 +7.0683289035e+01 +2.1817645849e+02 2.5030465606e+02 1.0000000000e+02 0.0000e+00 0.0000e+00
<mgrwt>
<rscale>  0 0.44809658E+03</rscale>
<asrwt>0</asrwt>
<pdfrwt beam="1">  1        4 0.39356983E-01 0.44809658E+03</pdfrwt>
<pdfrwt beam="2">  1       -4 0.79715262E-01 0.44809658E+03</pdfrwt>
<totfact> 0.17029493E+01</totfact>
</mgrwt>
</event>
<event>
 6      1 +2.6141198e-09 5.08693900e+02 7.81860800e-03 1.01153400e-01
       -4 -1    0    0    0  501 -0.0000000000e+00 +0.0000000000e+00 +2.2685821919e+02 2.2686177403e+02 1.2700000000e+00 0.0000e+00 -1.0000e+00
        4 -1    0    0  501    0 +0.0000000000e+00 -0.0000000000e+00 -2.8515930569e+02 2.8516213374e+02 1.2700000000e+00 0.0000e+00 -1.0000e+00
      -13  1    1    2    0    0 +1.6721208028e+01 +3.2899907779e+01 -5.8301966551e+01 6.9000965193e+01 1.0566000000e-01 0.0000e+00 -1.0000e+00
       13  1    1    2    0    0 -7.6528270486e+01 +2.6769193672e+00 +5.5769265219e+00 7.6777961385e+01 1.0566000000e-01 0.0000e+00 1.0000e+00
    10002  1    1    2    0    0 +6.5518745168e+01 -1.6326780978e+02 +1.3665102923e+01 2.0281967044e+02 1.0000000000e+02 0.0000e+00 0.0000e+00
   -10002  1    1    2    0    0 -5.7116827098e+00 +1.2769098263e+02 -1.9241149390e+01 1.6342531076e+02 1.0000000000e+02 0.0000e+00 0.0000e+00
<mgrwt>
<rscale>  0 0.50869388E+03</rscale>
<asrwt>0</asrwt>
<pdfrwt beam="1">  1        4 0.71290624E-01 0.50869388E+03</pdfrwt>
<pdfrwt beam="2">  1       -4 0.56715353E-01 0.50869388E+03</pdfrwt>
<totfact> 0.10351862E+01</totfact>
</mgrwt>
</event>
<event>
 6      1 +2.6141198e-09 4.99726300e+02 7.81860800e-03 1.01385000e-01
        4 -1    0    0  501    0 +0.0000000000e+00 +0.0000000000e+00 +1.8750478234e+02 1.8750908325e+02 1.2700000000e+00 0.0000e+00 -1.0000e+00
       -4 -1    0    0    0  501 -0.0000000000e+00 -0.0000000000e+00 -3.3295065776e+02 3.3295307988e+02 1.2700000000e+00 0.0000e+00 -1.0000e+00
      -13  1    1    2    0    0 -7.7658532446e+01 -2.2664232996e+00 -7.8450630783e+01 1.1041058360e+02 1.0566000000e-01 0.0000e+00 1.0000e+00
       13  1    1    2    0    0 +2.4981809428e+01 -1.8141761281e-01 -3.3280253919e+01 4.1613821978e+01 1.0566000000e-01 0.0000e+00 -1.0000e+00
    10002  1    1    2    0    0 +1.2983121646e+01 +2.9352340728e+01 +1.3221866501e+02 1.6885466156e+02 1.0000000000e+02 0.0000e+00 0.0000e+00
   -10002  1    1    2    0    0 +3.9693601372e+01 -2.6904499816e+01 -1.6593365573e+02 1.9958309599e+02 1.0000000000e+02 0.0000e+00 0.0000e+00
<mgrwt>
<rscale>  0 0.49972629E+03</rscale>
<asrwt>0</asrwt>
<pdfrwt beam="1">  1        4 0.46877036E-01 0.49972629E+03</pdfrwt>
<pdfrwt beam="2">  1       -4 0.83238504E-01 0.49972629E+03</pdfrwt>
<totfact> 0.10879414E+01</totfact>
</mgrwt>
</event>
<event>
 6      1 +2.6141198e-09 4.52659900e+02 7.81860800e-03 1.02693200e-01
       -4 -1    0    0    0  501 -0.0000000000e+00 +0.0000000000e+00 +2.2557233290e+02 2.2557590800e+02 1.2700000000e+00 0.0000e+00 -1.0000e+00
        4 -1    0    0  501    0 +0.0000000000e+00 -0.0000000000e+00 -2.2708299213e+02 2.2708654345e+02 1.2700000000e+00 0.0000e+00 -1.0000e+00
      -13  1    1    2    0    0 -2.5133024485e+01 -4.0065182701e+01 -2.2637758295e+01 5.2434407113e+01 1.0566000000e-01 0.0000e+00 1.0000e+00
       13  1    1    2    0    0 +5.4670376070e+01 -4.9086535375e+01 +3.8277527978e+00 7.3573098550e+01 1.0566000000e-01 0.0000e+00 -1.0000e+00
    10002  1    1    2    0    0 -4.1710901851e+01 +1.4872792051e+02 +7.1836545277e+01 1.9753552316e+02 1.0000000000e+02 0.0000e+00 0.0000e+00
   -10002  1    1    2    0    0 +1.2173550265e+01 -5.9576202439e+01 -5.4537199010e+01 1.2911942262e+02 1.0000000000e+02 0.0000e+00 0.0000e+00
<mgrwt>
<rscale>  0 0.45265993E+03</rscale>
<asrwt>0</asrwt>
<pdfrwt beam="1">  1        4 0.56771639E-01 0.45265993E+03</pdfrwt>
<pdfrwt beam="2">  1       -4 0.56393974E-01 0.45265993E+03</pdfrwt>
<totfact> 0.17074999E+01</totfact>
</mgrwt>
</event>
<event>
 6      1 +2.6141198e-09 3.44313600e+02 7.81860800e-03 1.06497300e-01
       -4 -1    0    0    0  501 -0.0000000000e+00 +0.0000000000e+00 +3.8209566146e+02 3.8209777205e+02 1.2700000000e+00 0.0000e+00 -1.0000e+00
        4 -1    0    0  501    0 +0.0000000000e+00 -0.0000000000e+00 -7.7559360837e+01 7.7569757982e+01 1.2700000000e+00 0.0000e+00 -1.0000e+00
      -13  1    1    2    0    0 +6.3288447716e+00 +1.6530698143e+01 +7.2244253123e+01 7.4381190704e+01 1.0566000000e-01 0.0000e+00 1.0000e+00
       13  1    1    2    0    0 +1.5364321862e+01 -3.8034759271e+01 +1.4318596173e+01 4.3448114568e+01 1.0566000000e-01 0.0000e+00 -1.0000e+00
    10002  1    1    2    0    0 +3.2172454374e+01 +6.6606368337e+01 +1.6977860334e+02 2.1046674150e+02 1.0000000000e+02 0.0000e+00 0.0000e+00
   -10002  1    1    2    0    0 -5.3865621008e+01 -4.5102307208e+01 +4.8194847980e+01 1.3137148326e+02 1.0000000000e+02 0.0000e+00 0.0000e+00
<mgrwt>
<rscale>  0 0.34431364E+03</rscale>
<asrwt>0</asrwt>
<pdfrwt beam="1">  1        4 0.19391404E-01 0.34431364E+03</pdfrwt>
<pdfrwt beam="2">  1       -4 0.95525477E-01 0.34431364E+03</pdfrwt>
<totfact> 0.42580123E+01</totfact>
</mgrwt>
</event>
<event>
 6      1 +2.6141198e-09 9.18329000e+02 7.81860800e-03 9.40295500e-02
       -4 -1    0    0    0  501 -0.0000000000e+00 +0.0000000000e+00 +5.1831940363e+02 5.1832095952e+02 1.2700000000e+00 0.0000e+00 1.0000e+00
        4 -1    0    0  501    0 +0.0000000000e+00 -0.0000000000e+00 -4.0675767392e+02 4.0675965654e+02 1.2700000000e+00 0.0000e+00 1.0000e+00
      -13  1    1    2    0    0 +1.7249944228e+01 -8.8489294681e+01 -2.2800877654e+01 9.2993585988e+01 1.0566000000e-01 0.0000e+00 -1.0000e+00
       13  1    1    2    0    0 +7.6708725369e+01 -6.4466389570e+01 -8.1768393042e+01 1.2932990836e+02 1.0566000000e-01 0.0000e+00 1.0000e+00
    10002  1    1    2    0    0 -6.5612924271e+01 +1.7058687969e+02 +4.2246900999e+02 4.7104671080e+02 1.0000000000e+02 0.0000e+00 0.0000e+00
   -10002  1    1    2    0    0 -2.8345745326e+01 -1.7631195440e+01 -2.0633800958e+02 2.3171041092e+02 1.0000000000e+02 0.0000e+00 0.0000e+00
<mgrwt>
<rscale>  0 0.91832899E+03</rscale>
<asrwt>0</asrwt>
<pdfrwt beam="1">  1        4 0.10168986E+00 0.91832899E+03</pdfrwt>
<pdfrwt beam="2">  1       -4 0.12958029E+00 0.91832899E+03</pdfrwt>
<totfact> 0.67420555E-01</totfact>
</mgrwt>
</event>
<event>
 6      1 +2.6141198e-09 4.34560500e+02 7.81860800e-03 1.03242900e-01
        4 -1    0    0  501    0 +0.0000000000e+00 +0.0000000000e+00 +8.7365299626e+01 8.7374529920e+01 1.2700000000e+00 0.0000e+00 1.0000e+00
       -4 -1    0    0    0  501 -0.0000000000e+00 -0.0000000000e+00 -5.4034428582e+02 5.4034577829e+02 1.2700000000e+00 0.0000e+00 1.0000e+00
      -13  1    1    2    0    0 +1.0320685802e+02 -1.2965119047e+01 -4.2244950817e+01 1.1226930519e+02 1.0566000000e-01 0.0000e+00 -1.0000e+00
       13  1    1    2    0    0 -1.5812940731e+01 -2.0776600017e+01 -2.8772942792e+01 3.8853694853e+01 1.0566000000e-01 0.0000e+00 1.0000e+00
    10002  1    1    2    0    0 -1.2626289522e+02 +3.4739130013e+01 -1.5809958341e+02 2.2835193044e+02 1.0000000000e+02 0.0000e+00 0.0000e+00
   -10002  1    1    2    0    0 +3.8868977931e+01 -9.9741094944e-01 -2.2386150918e+02 2.4824537773e+02 1.0000000000e+02 0.0000e+00 0.0000e+00
<mgrwt>
<rscale>  0 0.43456049E+03</rscale>
<asrwt>0</asrwt>
<pdfrwt beam="1">  1        4 0.21842667E-01 0.43456049E+03</pdfrwt>
<pdfrwt beam="2">  1       -4 0.13508740E+00 0.43456049E+03</pdfrwt>
<totfact> 0.14952285E+01</totfact>
</mgrwt>
</event>
<event>
 6      1 +2.6141198e-09 3.91797100e+02 7.81860800e-03 1.04665800e-01
       -4 -1    0    0    0  501 -0.0000000000e+00 +0.0000000000e+00 +1.7239526085e+02 1.7239993869e+02 1.2700000000e+00 0.0000e+00 1.0000e+00
        4 -1    0    0  501    0 +0.0000000000e+00 -0.0000000000e+00 -2.2259661068e+02 2.2260023357e+02 1.2700000000e+00 0.0000e+00 1.0000e+00
      -13  1    1    2    0    0 +1.4403893393e+01 +2.3902277684e+01 -2.5382384349e+00 2.8022220499e+01 1.0566000000e-01 0.0000e+00 1.0000e+00
       13  1    1    2    0    0 -5.6085396696e+01 -5.8130104092e+01 -1.5775650500e+01 8.2301658774e+01 1.0566000000e-01 0.0000e+00 -1.0000e+00
    10002  1    1    2    0    0 +4.4962156574e+01 +1.0782806958e+01 +7.7415173394e+01 1.3465130345e+02 1.0000000000e+02 0.0000e+00 0.0000e+00
   -10002  1    1    2    0    0 -3.2806532706e+00 +2.3445019450e+01 -1.0930263429e+02 1.5002498954e+02 1.0000000000e+02 0.0000e+00 0.0000e+00
<mgrwt>
<rscale>  0 0.39179709E+03</rscale>
<asrwt>0</asrwt>
<pdfrwt beam="1">  1        4 0.55650190E-01 0.39179709E+03</pdfrwt>
<pdfrwt beam="2">  1       -4 0.43099853E-01 0.39179709E+03</pdfrwt>
<totfact> 0.30817936E+01</totfact>
</mgrwt>
</event>
<event>
 6      1 +2.6141198e-09 4.73032000e+02 7.81860800e-03 1.02106800e-01
        4 -1    0    0  501    0 +0.0000000000e+00 +0.0000000000e+00 +1.1101016331e+03 1.1101023595e+03 1.2700000000e+00 0.0000e+00 1.0000e+00
       -4 -1    0    0    0  501 -0.0000000000e+00 -0.0000000000e+00 -5.0382875182e+01 5.0398879071e+01 1.2700000000e+00 0.0000e+00 1.0000e+00
      -13  1    1    2    0    0 +3.7410694034e+01 +1.7428054020e+01 +1.6308572099e+02 1.6822681311e+02 1.0566000000e-01 0.0000e+00 1.0000e+00
       13  1    1    2    0    0 -1.3641409883e+01 -7.0413000713e+01 +1.0350414667e+02 1.2592536788e+02 1.0566000000e-01 0.0000e+00 -1.0000e+00
    10002  1    1    2    0    0 -6.5194693371e+01 +8.8167848888e+01 +1.4216772826e+02 2.0551296937e+02 1.0000000000e+02 0.0000e+00 0.0000e+00
   -10002  1    1    2    0    0 +4.1425409219e+01 -3.5182902194e+01 +6.5096116197e+02 6.6083608825e+02 1.0000000000e+02 0.0000e+00 0.0000e+00
<mgrwt>
<rscale>  0 0.47303201E+03</rscale>
<asrwt>0</asrwt>
<pdfrwt beam="1">  1        4 0.27752750E+00 0.47303201E+03</pdfrwt>
<pdfrwt beam="2">  1       -4 0.12597810E-01 0.47303201E+03</pdfrwt>
<totfact> 0.46207562E+00</totfact>
</mgrwt>
</event>
<event>
 6      1 +2.6141198e-09 4.26806200e+02 7.81860800e-03 1.03487400e-01
        4 -1    0    0  501    0 +0.0000000000e+00 +0.0000000000e+00 +1.1918920737e+02 1.1919597332e+02 1.2700000000e+00 0.0000e+00 -1.0000e+00
       -4 -1    0    0    0  501 -0.0000000000e+00 -0.0000000000e+00 -3.8207035347e+02 3.8207246420e+02 1.2700000000e+00 0.0000e+00 -1.0000e+00
      -13  1    1    2    0    0 +6.5537333612e+01 -6.2372747289e+00 -1.4250375123e+01 6.7358221831e+01 1.0566000000e-01 0.0000e+00 -1.0000e+00
       13  1    1    2    0    0 -7.3504838999e+00 +3.9738055553e+01 -6.2546557543e+01 7.4466272213e+01 1.0566000000e-01 0.0000e+00 1.0000e+00
    10002  1    1    2    0    0 -8.9282742934e+01 +4.7724118737e+01 -1.5081207344e+01 1.4309592066e+02 1.0000000000e+02 0.0000e+00 0.0000e+00
   -10002  1    1    2    0    0 +3.1095893222e+01 -8.1224899562e+01 -1.7100300608e+02 2.1634802281e+02 1.0000000000e+02 0.0000e+00 0.0000e+00
<mgrwt>
<rscale>  0 0.42680622E+03</rscale>
<asrwt>0</asrwt>
<pdfrwt beam="1">  1        4 0.29798412E-01 0.42680622E+03</pdfrwt>
<pdfrwt beam="2">  1       -4 0.95518695E-01 0.42680622E+03</pdfrwt>
<totfact> 0.19348645E+01</totfact>
</mgrwt>
</event>
<event>
 6      1 +2.6141198e-09 6.84689300e+02 7.81860800e-03 9.74378000e-02
        4 -1    0    0  501    0 +0.0000000000e+00 +0.0000000000e+00 +1.6970700772e+02 1.6971175967e+02 1.2700000000e+00 0.0000e+00 -1.0000e+00
       -4 -1    0    0    0  501 -0.0000000000e+00 -0.0000000000e+00 -6.9058620874e+02 6.9058737651e+02 1.2700000000e+00 0.0000e+00 -1.0000e+00
      -13  1    1    2    0    0 -2.4519681729e+01 +8.5789264151e+00 -9.4226375735e+01 9.7741668794e+01 1.0566000000e-01 0.0000e+00 1.0000e+00
       13  1    1    2    0    0 +7.5851140023e+01 -7.9846226483e+01 -4.1559977922e+01 1.1771175921e+02 1.0566000000e-01 0.0000e+00 -1.0000e+00
    10002  1    1    2    0    0 -2.0325501978e+01 +2.1252352148e+02 -1.6338179638e+01 2.3631823740e+02 1.0000000000e+02 0.0000e+00 0.0000e+00
   -10002  1    1    2    0    0 -3.1005956316e+01 -1.4125622142e+02 -3.6875466772e+02 4.0852747078e+02 1.0000000000e+02 0.0000e+00 0.0000e+00
<mgrwt>
<rscale>  0 0.68468932E+03</rscale>
<asrwt>0</asrwt>
<pdfrwt beam="1">  1        4 0.42427494E-01 0.68468932E+03</pdfrwt>
<pdfrwt beam="2">  1       -4 0.17264729E+00 0.68468932E+03</pdfrwt>
<totfact> 0.21660159E+00</totfact>
</mgrwt>
</event>
<event>
 6      1 +2.6141198e-09 5.93239800e+02 7.81860800e-03 9.91953100e-02
       -4 -1    0    0    0  501 -0.0000000000e+00 +0.0000000000e+00 +1.6508389816e+02 1.6508878318e+02 1.2700000000e+00 0.0000e+00 1.0000e+00
        4 -1    0    0  501    0 +0.0000000000e+00 -0.0000000000e+00 -5.3294792307e+02 5.3294943626e+02 1.2700000000e+00 0.0000e+00 1.0000e+00
      -13  1    1    2    0    0 +2.7709113544e+01 -9.1368351704e+01 +5.3971482942e+01 1.0967635480e+02 1.0566000000e-01 0.0000e+00 -1.0000e+00
       13  1    1    2    0    0 -3.4717852461e+01 -3.5870195920e+01 -2.8660412480e+01 5.7562406503e+01 1.0566000000e-01 0.0000e+00 1.0000e+00
    10002  1    1    2    0    0 -1.1902709979e+02 +1.1672731087e+02 -1.9542627091e+02 2.7565221375e+02 1.0000000000e+02 0.0000e+00 0.0000e+00
   -10002  1    1    2    0    0 +1.2603583871e+02 +1.0511236753e+01 -1.9774882447e+02 2.5514724438e+02 1.0000000000e+02 0.0000e+00 0.0000e+00
<mgrwt>
<rscale>  0 0.59323976E+03</rscale>
<asrwt>0</asrwt>
<pdfrwt beam="1">  1        4 0.13323778E+00 0.59323976E+03</pdfrwt>
<pdfrwt beam="2">  1       -4 0.41271776E-01 0.59323976E+03</pdfrwt>
<totfact> 0.45700716E+00</totfact>
</mgrwt>
</event>
<event>
 6      1 +2.6141198e-09 3.86383800e+02 7.81860800e-03 1.04859900e-01
        4 -1    0    0  501    0 +0.0000000000e+00 +0.0000000000e+00 +1.3024961695e+02 1.3025580838e+02 1.2700000000e+00 0.0000e+00 -1.0000e+00
       -4 -1    0    0    0  501 -0.0000000000e+00 -0.0000000000e+00 -2.8653618095e+02 2.8653899542e+02 1.2700000000e+00 0.0000e+00 -1.0000e+00
      -13  1    1    2    0    0 -1.3715254552e+01 -2.1215687994e+01 -3.8069424595e+01 4.5689231526e+01 1.0566000000e-01 0.0000e+00 -1.0000e+00
       13  1    1    2    0    0 +7.8925404021e+01 +1.7091646366e+01 -1.6516985692e+00 8.0771796115e+01 1.0566000000e-01 0.0000e+00 1.0000e+00
    10002  1    1    2    0    0 -5.3891973574e+01 +8.0066740040e+01 -4.9510984507e+01 1.4753428504e+02 1.0000000000e+02 0.0000e+00 0.0000e+00
   -10002  1    1    2    0    0 -1.1318175895e+01 -7.5942698412e+01 -6.7054456331e+01 1.4279949111e+02 1.0000000000e+02 0.0000e+00 0.0000e+00
<mgrwt>
<rscale>  0 0.38638377E+03</rscale>
<asrwt>0</asrwt>
<pdfrwt beam="1">  1        4 0.32563530E-01 0.38638377E+03</pdfrwt>
<pdfrwt beam="2">  1       -4 0.71635170E-01 0.38638377E+03</pdfrwt>
<totfact> 0.31131650E+01</totfact>
</mgrwt>
</event>
<event>
 6      1 +2.6141198e-09 6.23016600e+02 7.81860800e-03 9.85877200e-02
       -4 -1    0    0    0  501 -0.0000000000e+00 +0.0000000000e+00 +3.5840479733e+02 3.5840704743e+02 1.2700000000e+00 0.0000e+00 -1.0000e+00
        4 -1    0    0  501    0 +0.0000000000e+00 -0.0000000000e+00 -2.7074352850e+02 2.7074650713e+02 1.2700000000e+00 0.0000e+00 -1.0000e+00
      -13  1    1    2    0    0 +5.2536316556e+00 +5.8462094964e+01 +8.0808156337e+00 5.9251396089e+01 1.0566000000e-01 0.0000e+00 -1.0000e+00
       13  1    1    2    0    0 -4.6767336833e+01 -3.1257531626e+01 -2.2204527127e+01 6.0475360824e+01 1.0566000000e-01 0.0000e+00 1.0000e+00
    10002  1    1    2    0    0 +1.6580013958e+02 -1.8486423021e+02 +1.2408095463e+01 2.6798960937e+02 1.0000000000e+02 0.0000e+00 0.0000e+00
   -10002  1    1    2    0    0 -1.2428643441e+02 +1.5765966687e+02 +8.9376884861e+01 2.4143718828e+02 1.0000000000e+02 0.0000e+00 0.0000e+00
<mgrwt>
<rscale>  0 0.62301661E+03</rscale>
<asrwt>0</asrwt>
<pdfrwt beam="1">  1        4 0.67686536E-01 0.62301661E+03</pdfrwt>
<pdfrwt beam="2">  1       -4 0.89601852E-01 0.62301661E+03</pdfrwt>
<totfact> 0.42272979E+00</totfact>
</mgrwt>
</event>
<event>
 6      1 +2.6141198e-09 5.18608100e+02 7.81860800e-03 1.00903300e-01
        4 -1    0    0  501    0 +0.0000000000e+00 +0.0000000000e+00 +3.2268966156e+02 3.2269216070e+02 1.2700000000e+00 0.0000e+00 1.0000e+00
       -4 -1    0    0    0  501 -0.0000000000e+00 -0.0000000000e+00 -2.0836398304e+02 2.0836785340e+02 1.2700000000e+00 0.0000e+00 1.0000e+00
      -13  1    1    2    0    0 -3.6304989337e+00 -3.5363418940e+01 +7.8142018659e+01 8.5848343990e+01 1.0566000000e-01 0.0000e+00 1.0000e+00
       13  1    1    2    0    0 +1.9322584752e+01 +1.9766872823e+01 -7.2969171348e+00 2.8589293563e+01 1.0566000000e-01 0.0000e+00 -1.0000e+00
    10002  1    1    2    0    0 -1.5658287774e+02 +9.9615927629e+01 -2.5820428867e+01 2.1238697038e+02 1.0000000000e+02 0.0000e+00 0.0000e+00
   -10002  1    1    2    0    0 +1.4089079192e+02 -8.4019381512e+01 +6.9301005858e+01 2.0423540616e+02 1.0000000000e+02 0.0000e+00 0.0000e+00
<mgrwt>
<rscale>  0 0.51860812E+03</rscale>
<asrwt>0</asrwt>
<pdfrwt beam="1">  1        4 0.80673211E-01 0.51860812E+03</pdfrwt>
<pdfrwt beam="2">  1       -4 0.52091792E-01 0.51860812E+03</pdfrwt>
<totfact> 0.93954448E+00</totfact>
</mgrwt>
</event>
<event>
 6      1 +2.6141198e-09 3.81625900e+02 7.81860800e-03 1.05033400e-01
        4 -1    0    0  501    0 +0.0000000000e+00 +0.0000000000e+00 +6.3907057796e+02 6.3907183987e+02 1.2700000000e+00 0.0000e+00 -1.0000e+00
       -4 -1    0    0    0  501 -0.0000000000e+00 -0.0000000000e+00 -5.6964324078e+01 5.6978479426e+01 1.2700000000e+00 0.0000e+00 -1.0000e+00
      -13  1    1    2    0    0 +2.6134433465e+01 +5.2926596913e+01 +3.1644776294e+01 6.6974893088e+01 1.0566000000e-01 0.0000e+00 1.0000e+00
       13  1    1    2    0    0 +2.6262229546e+01 -4.3279423429e+01 +1.0783815880e+02 1.1912973118e+02 1.0566000000e-01 0.0000e+00 -1.0000e+00
    10002  1    1    2    0    0 +2.1673331475e+01 +4.7542664115e+01 +2.4228736646e+02 2.6726991255e+02 1.0000000000e+02 0.0000e+00 0.0000e+00
   -10002  1    1    2    0    0 -7.4069994486e+01 -5.7189837599e+01 +2.0033595234e+02 2.4267578249e+02 1.0000000000e+02 0.0000e+00 0.0000e+00
<mgrwt>
<rscale>  0 0.38162594E+03</rscale>
<asrwt>0</asrwt>
<pdfrwt beam="1">  1        4 0.15976957E+00 0.38162594E+03</pdfrwt>
<pdfrwt beam="2">  1       -4 0.14243008E-01 0.38162594E+03</pdfrwt>
<totfact> 0.20767515E+01</totfact>
</mgrwt>
</event>
<event>
 6      1 +2.6141198e-09 8.41492100e+02 7.81860800e-03 9.50182800e-02
        4 -1    0    0  501    0 +0.0000000000e+00 +0.0000000000e+00 +1.6930519736e+02 1.6930996058e+02 1.2700000000e+00 0.0000e+00 -1.0000e+00
       -4 -1    0    0    0  501 -0.0000000000e+00 -0.0000000000e+00 -1.0455902287e+03 1.0455910000e+03 1.2700000000e+00 0.0000e+00 -1.0000e+00
      -13  1    1    2    0    0 +2.3204165389e+01 -1.6820086336e+02 -1.2360687745e+02 2.1002055862e+02 1.0566000000e-01 0.0000e+00 1.0000e+00
       13  1    1    2    0    0 +2.5339709980e+01 -1.8718220015e+01 +1.1738353549e+01 3.3619529599e+01 1.0566000000e-01 0.0000e+00 -1.0000e+00
    10002  1    1    2    0    0 -2.2335373004e+02 +6.3600881196e+01 -1.1036670803e+02 2.7588543102e+02 1.0000000000e+02 0.0000e+00 0.0000e+00
   -10002  1    1    2    0    0 +1.7480985467e+02 +1.2331820218e+02 -6.5404979941e+02 6.9537544132e+02 1.0000000000e+02 0.0000e+00 0.0000e+00
<mgrwt>
<rscale>  0 0.84149206E+03</rscale>
<asrwt>0</asrwt>
<pdfrwt beam="1">  1        4 0.42326994E-01 0.84149206E+03</pdfrwt>
<pdfrwt beam="2">  1       -4 0.26139823E+00 0.84149206E+03</pdfrwt>
<totfact> 0.58223202E-01</totfact>
</mgrwt>
</event>
<event>
 6      1 +2.6141198e-09 3.71985700e+02 7.81860800e-03 1.05393600e-01
       -4 -1    0    0    0  501 -0.0000000000e+00 +0.0000000000e+00 +5.4864370638e+02 5.4864517628e+02 1.2700000000e+00 0.0000e+00 1.0000e+00
        4 -1    0    0  501    0 +0.0000000000e+00 -0.0000000000e+00 -6.3044521293e+01 6.3057311750e+01 1.2700000000e+00 0.0000e+00 1.0000e+00
      -13  1    1    2    0    0 +2.2258924727e+01 -2.0488059039e+01 +2.3191623108e+01 3.8119323703e+01 1.0566000000e-01 0.0000e+00 -1.0000e+00
       13  1    1    2    0    0 -1.4189734649e+00 +3.1679448527e+01 +1.7621395046e+02 1.7904459904e+02 1.0566000000e-01 0.0000e+00 1.0000e+00
    10002  1    1    2    0    0 +3.1074842344e+01 -8.4485530747e+01 +1.7046862736e+02 2.1717044837e+02 1.0000000000e+02 0.0000e+00 0.0000e+00
   -10002  1    1    2    0    0 -5.1914793606e+01 +7.3294141259e+01 +1.1572498416e+02 1.7736811691e+02 1.0000000000e+02 0.0000e+00 0.0000e+00
<mgrwt>
<rscale>  0 0.37198571E+03</rscale>
<asrwt>0</asrwt>
<pdfrwt beam="1">  1        4 0.15762913E-01 0.37198571E+03</pdfrwt>
<pdfrwt beam="2">  1       -4 0.13716271E+00 0.37198571E+03</pdfrwt>
<totfact> 0.25794250E+01</totfact>
</mgrwt>
</event>
<event>
 6      1 +2.6141198e-09 3.92026500e+02 7.81860800e-03 1.04657600e-01
       -4 -1    0    0    0  501 -0.0000000000e+00 +0.0000000000e+00 +2.1503359752e+02 2.1503734783e+02 1.2700000000e+00 0.0000e+00 1.0000e+00
        4 -1    0    0  501    0 +0.0000000000e+00 -0.0000000000e+00 -1.7866771169e+02 1.7867222532e+02 1.2700000000e+00 0.0000e+00 1.0000e+00
      -13  1    1    2    0    0 -2.7375892872e+01 -3.3023819591e+01 -3.3790803873e+01 5.4606242879e+01 1.0566000000e-01 0.0000e+00 -1.0000e+00
       13  1    1    2    0    0 +1.3877478543e+01 +7.1092257620e+01 -3.3541306640e+01 7.9823078864e+01 1.0566000000e-01 0.0000e+00 1.0000e+00
    10002  1    1    2    0    0 +3.1367346126e+01 -7.0890864606e+01 +3.1458463562e+01 1.3038044338e+02 1.0000000000e+02 0.0000e+00 0.0000e+00
   -10002  1    1    2    0    0 -1.7868931797e+01 +3.2822426577e+01 +7.2239532780e+01 1.2889980802e+02 1.0000000000e+02 0.0000e+00 0.0000e+00
<mgrwt>
<rscale>  0 0.39202647E+03</rscale>
<asrwt>0</asrwt>
<pdfrwt beam="1">  1        4 0.44667961E-01 0.39202647E+03</pdfrwt>
<pdfrwt beam="2">  1       -4 0.53759432E-01 0.39202647E+03</pdfrwt>
<totfact> 0.30824282E+01</totfact>
</mgrwt>
</event>
<event>
 6      1 +2.6141198e-09 6.51983600e+02 7.81860800e-03 9.80306400e-02
       -4 -1    0    0    0  501 -0.0000000000e+00 +0.0000000000e+00 +1.9207247431e+02 1.9207667293e+02 1.2700000000e+00 0.0000e+00 1.0000e+00
        4 -1    0    0  501    0 +0.0000000000e+00 -0.0000000000e+00 -5.5327313466e+02 5.5327459226e+02 1.2700000000e+00 0.0000e+00 1.0000e+00
      -13  1    1    2    0    0 +1.5709831957e+00 -2.5320236145e+01 -7.5187740019e+01 7.9352314143e+01 1.0566000000e-01 0.0000e+00 -1.0000e+00
       13  1    1    2    0    0 -6.0306999423e+01 +7.5932284263e+01 -2.8121018076e+02 2.9745894321e+02 1.0566000000e-01 0.0000e+00 1.0000e+00
    10002  1    1    2    0    0 +2.7808812811e+00 +8.9630422336e+01 +9.2368765820e+01 1.6301329641e+02 1.0000000000e+02 0.0000e+00 0.0000e+00
   -10002  1    1    2    0    0 +5.5955134946e+01 -1.4024247045e+02 -9.7171505401e+01 2.0552671142e+02 1.0000000000e+02 0.0000e+00 0.0000e+00
<mgrwt>
<rscale>  0 0.65198358E+03</rscale>
<asrwt>0</asrwt>
<pdfrwt beam="1">  1        4 0.13831899E+00 0.65198358E+03</pdfrwt>
<pdfrwt beam="2">  1       -4 0.48018827E-01 0.65198358E+03</pdfrwt>
<totfact> 0.30463443E+00</totfact>
</mgrwt>
</event>
<event>
 6      1 +2.6141198e-09 6.80545100e+02 7.81860800e-03 9.75109400e-02
        4 -1    0    0  501    0 +0.0000000000e+00 +0.0000000000e+00 +6.8469664357e+02 6.8469782139e+02 1.2700000000e+00 0.0000e+00 1.0000e+00
       -4 -1    0    0    0  501 -0.0000000000e+00 -0.0000000000e+00 -1.6910096095e+02 1.6910572993e+02 1.2700000000e+00 0.0000e+00 1.0000e+00
      -13  1    1    2    0    0 -5.4838666503e+01 -7.3374220156e+01 +1.3956626263e+02 1.6694253010e+02 1.0566000000e-01 0.0000e+00 -1.0000e+00
       13  1    1    2    0    0 -7.3598147255e+01 +1.2505710288e+01 +7.8267132544e+01 1.0816115416e+02 1.0566000000e-01 0.0000e+00 1.0000e+00
    10002  1    1    2    0    0 +1.3458935756e+02 +6.1633517475e+01 +3.9844512100e+02 4.3665947842e+02 1.0000000000e+02 0.0000e+00 0.0000e+00
   -10002  1    1    2    0    0 -6.1525438017e+00 -7.6500760684e-01 -1.0068283355e+02 1.4204038864e+02 1.0000000000e+02 0.0000e+00 0.0000e+00
<mgrwt>
<rscale>  0 0.68054507E+03</rscale>
<asrwt>0</asrwt>
<pdfrwt beam="1">  1        4 0.17117490E+00 0.68054507E+03</pdfrwt>
<pdfrwt beam="2">  1       -4 0.42275984E-01 0.68054507E+03</pdfrwt>
<totfact> 0.22347586E+00</totfact>
</mgrwt>
</event>
<event>
 6      1 +2.6141198e-09 6.11661000e+02 7.81860800e-03 9.88150400e-02
       -4 -1    0    0    0  501 -0.0000000000e+00 +0.0000000000e+00 +9.6636557665e+01 9.6644902491e+01 1.2700000000e+00 0.0000e+00 1.0000e+00
        4 -1    0    0  501    0 +0.0000000000e+00 -0.0000000000e+00 -9.6782640343e+02 9.6782723669e+02 1.2700000000e+00 0.0000e+00 1.0000e+00
      -13  1    1    2    0    0 -3.5598653748e+01 -1.1250158015e+01 -6.2835870837e+01 7.3090273169e+01 1.0566000000e-01 0.0000e+00 -1.0000e+00
       13  1    1    2    0    0 +5.4175359027e+01 -7.6549927532e+01 -1.1777906911e+02 1.5055491096e+02 1.0566000000e-01 0.0000e+00 1.0000e+00
    10002  1    1    2    0    0 -1.9905817580e+01 +2.9511519726e+01 +3.0561718409e+01 1.1045899693e+02 1.0000000000e+02 0.0000e+00 0.0000e+00
   -10002  1    1    2    0    0 +1.3291123012e+00 +5.8288565821e+01 -7.2113662423e+02 7.3036795812e+02 1.0000000000e+02 0.0000e+00 0.0000e+00
<mgrwt>
<rscale>  0 0.61166101E+03</rscale>
<asrwt>0</asrwt>
<pdfrwt beam="1">  1        4 0.24195772E+00 0.61166101E+03</pdfrwt>
<pdfrwt beam="2">  1       -4 0.24160290E-01 0.61166101E+03</pdfrwt>
<totfact> 0.23205530E+00</totfact>
</mgrwt>
</event>
<event>
 6      1 +2.6141198e-09 4.12147500e+02 7.81860800e-03 1.03965300e-01
        4 -1    0    0  501    0 +0.0000000000e+00 +0.0000000000e+00 +2.4903548736e+02 2.4903872564e+02 1.2700000000e+00 0.0000e+00 -1.0000e+00
       -4 -1    0    0    0  501 -0.0000000000e+00 -0.0000000000e+00 -1.7051672175e+02 1.7052145114e+02 1.2700000000e+00 0.0000e+00 -1.0000e+00
      -13  1    1    2    0    0 -2.4137666804e+01 -5.0969121721e+00 -1.2845682228e+01 2.7814172437e+01 1.0566000000e-01 0.0000e+00 1.0000e+00
       13  1    1    2    0    0 +6.5974003005e+01 -2.3791481049e+01 +1.2360331272e+02 1.4211401663e+02 1.0566000000e-01 0.0000e+00 -1.0000e+00
    10002  1    1    2    0    0 +4.3682271927e+01 -1.1902074130e+01 -1.3086339319e+01 1.1054886940e+02 1.0000000000e+02 0.0000e+00 0.0000e+00
   -10002  1    1    2    0    0 -8.5518608128e+01 +4.0790467352e+01 -1.9152525561e+01 1.3908311831e+02 1.0000000000e+02 0.0000e+00 0.0000e+00
<mgrwt>
<rscale>  0 0.41214748E+03</rscale>
<asrwt>0</asrwt>
<pdfrwt beam="1">  1        4 0.62259867E-01 0.41214748E+03</pdfrwt>
<pdfrwt beam="2">  1       -4 0.42630177E-01 0.41214748E+03</pdfrwt>
<totfact> 0.24888407E+01</totfact>
</mgrwt>
</event>
<event>
 6      1 +2.6141198e-09 5.26468900e+02 7.81860800e-03 1.00709200e-01
        4 -1    0    0  501    0 +0.0000000000e+00 +0.0000000000e+00 +9.7895752323e+02 9.7895834702e+02 1.2700000000e+00 0.0000e+00 -1.0000e+00
       -4 -1    0    0    0  501 -0.0000000000e+00 -0.0000000000e+00 -7.0775249903e+01 7.0786643505e+01 1.2700000000e+00 0.0000e+00 -1.0000e+00
      -13  1    1    2    0    0 +2.2790698683e+01 +1.0242107332e+01 +6.8523914744e+01 7.2937334506e+01 1.0566000000e-01 0.0000e+00 -1.0000e+00
       13  1    1    2    0    0 -5.8343517079e+00 -7.7054859149e+01 +3.0971049582e+01 8.3250874197e+01 1.0566000000e-01 0.0000e+00 1.0000e+00
    10002  1    1    2    0    0 -1.4885516282e+02 -3.8931704231e+01 +3.7722740504e+02 4.1949261281e+02 1.0000000000e+02 0.0000e+00 0.0000e+00
   -10002  1    1    2    0    0 +1.3189881584e+02 +1.0574445605e+02 +4.3145990397e+02 4.7406416901e+02 1.0000000000e+02 0.0000e+00 0.0000e+00
<mgrwt>
<rscale>  0 0.52646890E+03</rscale>
<asrwt>0</asrwt>
<pdfrwt beam="1">  1        4 0.24474090E+00 0.52646890E+03</pdfrwt>
<pdfrwt beam="2">  1       -4 0.17695340E-01 0.52646890E+03</pdfrwt>
<totfact> 0.39731906E+00</totfact>
</mgrwt>
</event>
<event>
 6      1 +2.6141198e-09 5.07113200e+02 7.81860800e-03 1.01193900e-01
       -4 -1    0    0    0  501 -0.0000000000e+00 +0.0000000000e+00 +3.5614579252e+02 3.5614805690e+02 1.2700000000e+00 0.0000e+00 1.0000e+00
        4 -1    0    0  501    0 +0.0000000000e+00 -0.0000000000e+00 -1.8051356714e+02 1.8051803462e+02 1.2700000000e+00 0.0000e+00 1.0000e+00
      -13  1    1    2    0    0 -3.8169384484e+01 -2.7857224760e+01 +4.2347115840e+01 6.3452472507e+01 1.0566000000e-01 0.0000e+00 -1.0000e+00
       13  1    1    2    0    0 +2.8062923273e+01 +7.1385481477e+00 -3.0385683161e+01 4.1973651706e+01 1.0566000000e-01 0.0000e+00 1.0000e+00
    10002  1    1    2    0    0 -1.6646366206e+02 +1.1838833353e+01 +9.7515687349e+01 2.1762265057e+02 1.0000000000e+02 0.0000e+00 0.0000e+00
   -10002  1    1    2    0    0 +1.7657012327e+02 +8.8798432595e+00 +6.6155105352e+01 2.1361731674e+02 1.0000000000e+02 0.0000e+00 0.0000e+00
<mgrwt>
<rscale>  0 0.50711322E+03</rscale>
<asrwt>0</asrwt>
<pdfrwt beam="1">  1        4 0.45129234E-01 0.50711322E+03</pdfrwt>
<pdfrwt beam="2">  1       -4 0.89037289E-01 0.50711322E+03</pdfrwt>
<totfact> 0.10082704E+01</totfact>
</mgrwt>
</event>
<event>
 6      1 +2.6141198e-09 3.39949200e+02 7.81860800e-03 1.06681800e-01
       -4 -1    0    0    0  501 -0.0000000000e+00 +0.0000000000e+00 +3.0939816194e+02 3.0940076845e+02 1.2700000000e+00 0.0000e+00 -1.0000e+00
        4 -1    0    0  501    0 +0.0000000000e+00 -0.0000000000e+00 -9.3371918686e+01 9.3380555251e+01 1.2700000000e+00 0.0000e+00 -1.0000e+00
      -13  1    1    2    0    0 +9.1128895308e+00 -3.5210236677e+01 +2.7237937380e+00 3.6472396944e+01 1.0566000000e-01 0.0000e+00 1.0000e+00
       13  1    1    2    0    0 +1.5965043938e+01 +3.3245561788e+01 +7.6215456509e+01 8.4669693406e+01 1.0566000000e-01 0.0000e+00 -1.0000e+00
    10002  1    1    2    0    0 -1.8022007478e+01 -6.6280075315e+01 +9.2001408723e+01 1.5225669228e+02 1.0000000000e+02 0.0000e+00 0.0000e+00
   -10002  1    1    2    0    0 -7.0559259913e+00 +6.8244750204e+01 +4.5085584289e+01 1.2938254107e+02 1.0000000000e+02 0.0000e+00 0.0000e+00
<mgrwt>
<rscale>  0 0.33994920E+03</rscale>
<asrwt>0</asrwt>
<pdfrwt beam="1">  1        4 0.23344385E-01 0.33994920E+03</pdfrwt>
<pdfrwt beam="2">  1       -4 0.77350945E-01 0.33994920E+03</pdfrwt>
<totfact> 0.48933591E+01</totfact>
</mgrwt>
</event>
<event>
 6      1 +2.6141198e-09 4.63157700e+02 7.81860800e-03 1.02386900e-01
        4 -1    0    0  501    0 +0.0000000000e+00 +0.0000000000e+00 +8.9496841184e+02 8.9496931293e+02 1.2700000000e+00 0.0000e+00 -1.0000e+00
       -4 -1    0    0    0  501 -0.0000000000e+00 -0.0000000000e+00 -5.9914870717e+01 5.9928329136e+01 1.2700000000e+00 0.0000e+00 -1.0000e+00
      -13  1    1    2    0    0 +2.7235886056e+00 -1.0992946672e+01 -1.5413903087e+01 1.9127529476e+01 1.0566000000e-01 0.0000e+00 -1.0000e+00
       13  1    1    2    0    0 +4.5524347547e+01 -7.5950591775e+01 +1.7193356367e+02 1.9339627734e+02 1.0566000000e-01 0.0000e+00 1.0000e+00
    10002  1    1    2    0    0 -1.1316589448e+02 +9.7002745047e+01 +3.6388213815e+02 4.0574162059e+02 1.0000000000e+02 0.0000e+00 0.0000e+00
   -10002  1    1    2    0    0 +6.4917958327e+01 -1.0059206600e+01 +3.1465174239e+02 3.3663221465e+02 1.0000000000e+02 0.0000e+00 0.0000e+00
<mgrwt>
<rscale>  0 0.46315774E+03</rscale>
<asrwt>0</asrwt>
<pdfrwt beam="1">  1        4 0.22374389E+00 0.46315774E+03</pdfrwt>
<pdfrwt beam="2">  1       -4 0.14980513E-01 0.46315774E+03</pdfrwt>
<totfact> 0.72012208E+00</totfact>
</mgrwt>
</event>
<event>
 6      1 +2.6141198e-09 9.26848300e+02 7.81860800e-03 9.39262800e-02
        4 -1    0    0  501    0 +0.0000000000e+00 +0.0000000000e+00 +4.6640031018e+02 4.6640203927e+02 1.2700000000e+00 0.0000e+00 -1.0000e+00
       -4 -1    0    0    0  501 -0.0000000000e+00 -0.0000000000e+00 -4.6046354409e+02 4.6046529547e+02 1.2700000000e+00 0.0000e+00 -1.0000e+00
      -13  1    1    2    0    0 +3.1866615672e+01 -1.0126060618e+01 -5.4075914067e+01 6.3578565132e+01 1.0566000000e-01 0.0000e+00 -1.0000e+00
       13  1    1    2    0    0 -3.7720278464e+01 +8.7856636054e+01 -6.1763031963e+01 1.1382570530e+02 1.0566000000e-01 0.0000e+00 1.0000e+00
    10002  1    1    2    0    0 +4.8875461506e+01 +1.4796211552e+02 -2.4387241085e+02 3.0619495610e+02 1.0000000000e+02 0.0000e+00 0.0000e+00
   -10002  1    1    2    0    0 -4.3021798714e+01 -2.2569269096e+02 +3.6564812297e+02 4.4326810820e+02 1.0000000000e+02 0.0000e+00 0.0000e+00
<mgrwt>
<rscale>  0 0.92684832E+03</rscale>
<asrwt>0</asrwt>
<pdfrwt beam="1">  1        4 0.11660051E+00 0.92684832E+03</pdfrwt>
<pdfrwt beam="2">  1       -4 0.11511632E+00 0.92684832E+03</pdfrwt>
<totfact> 0.64970319E-01</totfact>
</mgrwt>
</event>
<event>
 6      1 +2.6141198e-09 3.36426100e+02 7.81860800e-03 1.06832800e-01
       -4 -1    0    0    0  501 -0.0000000000e+00 +0.0000000000e+00 +1.5767617301e+02 1.5768128752e+02 1.2700000000e+00 0.0000e+00 -1.0000e+00
        4 -1    0    0  501    0 +0.0000000000e+00 -0.0000000000e+00 -1.7944381507e+02 1.7944830918e+02 1.2700000000e+00 0.0000e+00 -1.0000e+00
      -13  1    1    2    0    0 +2.3327553549e+01 -1.9961846754e+01 -5.3431837897e+01 6.1624853310e+01 1.0566000000e-01 0.0000e+00 -1.0000e+00
       13  1    1    2    0    0 +7.8899545218e+00 +7.7593166409e+00 +4.0762169400e+01 4.2237708216e+01 1.0566000000e-01 0.0000e+00 1.0000e+00
    10002  1    1    2    0    0 -4.8251913207e+01 +3.9039258930e+01 -3.9287845139e+01 1.2407999694e+02 1.0000000000e+02 0.0000e+00 0.0000e+00
   -10002  1    1    2    0    0 +1.7034405137e+01 -2.6836728817e+01 +3.0189871577e+01 1.0918703823e+02 1.0000000000e+02 0.0000e+00 0.0000e+00
<mgrwt>
<rscale>  0 0.33642612E+03</rscale>
<asrwt>0</asrwt>
<pdfrwt beam="1">  1        4 0.44862155E-01 0.33642612E+03</pdfrwt>
<pdfrwt beam="2">  1       -4 0.39420244E-01 0.33642612E+03</pdfrwt>
<totfact> 0.56934143E+01</totfact>
</mgrwt>
</event>
<event>
 6      1 +2.6141198e-09 3.69128600e+02 7.81860800e-03 1.05502700e-01
       -4 -1    0    0    0  501 -0.0000000000e+00 +0.0000000000e+00 +1.7831056950e+02 1.7831509217e+02 1.2700000000e+00 0.0000e+00 1.0000e+00
        4 -1    0    0  501    0 +0.0000000000e+00 -0.0000000000e+00 -1.9102827698e+02 1.9103249856e+02 1.2700000000e+00 0.0000e+00 1.0000e+00
      -13  1    1    2    0    0 +1.4182632992e+01 +2.2269221879e+00 +5.4032472672e+01 5.5907294051e+01 1.0566000000e-01 0.0000e+00 1.0000e+00
       13  1    1    2    0    0 -2.3454531095e+01 -3.8050935691e+00 -2.2567986903e+01 3.2770702812e+01 1.0566000000e-01 0.0000e+00 -1.0000e+00
    10002  1    1    2    0    0 -7.8230300830e+01 -1.7409573926e+00 +2.7109394479e+01 1.2983809214e+02 1.0000000000e+02 0.0000e+00 0.0000e+00
   -10002  1    1    2    0    0 +8.7502198933e+01 +3.3191287739e+00 -7.1291587730e+01 1.5083150173e+02 1.0000000000e+02 0.0000e+00 0.0000e+00
<mgrwt>
<rscale>  0 0.36912857E+03</rscale>
<asrwt>0</asrwt>
<pdfrwt beam="1">  1        4 0.47758162E-01 0.36912857E+03</pdfrwt>
<pdfrwt beam="2">  1       -4 0.44578735E-01 0.36912857E+03</pdfrwt>
<totfact> 0.39402503E+01</totfact>
</mgrwt>
</event>
<event>
 6      1 +2.6141198e-09 4.26554400e+02 7.81860800e-03 1.03495400e-01
       -4 -1    0    0    0  501 -0.0000000000e+00 +0.0000000000e+00 +1.6753096942e+02 1.6753578308e+02 1.2700000000e+00 0.0000e+00 -1.0000e+00
        4 -1    0    0  501    0 +0.0000000000e+00 -0.0000000000e+00 -2.7150481862e+02 2.7150778890e+02 1.2700000000e+00 0.0000e+00 -1.0000e+00
      -13  1    1    2    0    0 +5.2106779139e+01 -1.2569868382e+01 +5.9899870582e+00 5.3935230901e+01 1.0566000000e-01 0.0000e+00 -1.0000e+00
       13  1    1    2    0    0 -1.7330595189e+01 -3.3694903085e+01 -6.1844559066e+01 7.2529005739e+01 1.0566000000e-01 0.0000e+00 1.0000e+00
    10002  1    1    2    0    0 -1.0451495898e+02 +7.8771863704e+01 +2.5237480079e+01 1.6662926982e+02 1.0000000000e+02 0.0000e+00 0.0000e+00
   -10002  1    1    2    0    0 +6.9738775027e+01 -3.2507092237e+01 -7.3356757277e+01 1.4595006552e+02 1.0000000000e+02 0.0000e+00 0.0000e+00
<mgrwt>
<rscale>  0 0.42655445E+03</rscale>
<asrwt>0</asrwt>
<pdfrwt beam="1">  1        4 0.67877177E-01 0.42655445E+03</pdfrwt>
<pdfrwt beam="2">  1       -4 0.41883716E-01 0.42655445E+03</pdfrwt>
<totfact> 0.21424531E+01</totfact>
</mgrwt>
</event>
<event>
 6      1 +2.6141198e-09 4.38367200e+02 7.81860800e-03 1.03124900e-01
        4 -1    0    0  501    0 +0.0000000000e+00 +0.0000000000e+00 +7.9108352060e+01 7.9118545649e+01 1.2700000000e+00 0.0000e+00 -1.0000e+00
       -4 -1    0    0    0  501 -0.0000000000e+00 -0.0000000000e+00 -6.0723685335e+02 6.0723818141e+02 1.2700000000e+00 0.0000e+00 -1.0000e+00
      -13  1    1    2    0    0 +2.4116661989e+01 -3.7891203246e+01 -1.9743330105e+01 4.9062887365e+01 1.0566000000e-01 0.0000e+00 1.0000e+00
       13  1    1    2    0    0 +5.0515556565e+01 +3.7819566235e+01 -1.6905388349e+02 1.8044768697e+02 1.0566000000e-01 0.0000e+00 -1.0000e+00
    10002  1    1    2    0    0 +4.0322559219e+01 -6.7709244892e+01 -2.1094233333e+02 2.4638814626e+02 1.0000000000e+02 0.0000e+00 0.0000e+00
   -10002  1    1    2    0    0 -1.1495477777e+02 +6.7780881903e+01 -1.2838895437e+02 2.1045800647e+02 1.0000000000e+02 0.0000e+00 0.0000e+00
<mgrwt>
<rscale>  0 0.43836725E+03</rscale>
<asrwt>0</asrwt>
<pdfrwt beam="1">  1        4 0.19778530E-01 0.43836725E+03</pdfrwt>
<pdfrwt beam="2">  1       -4 0.15181064E+00 0.43836725E+03</pdfrwt>
<totfact> 0.13271470E+01</totfact>
</mgrwt>
</event>
<event>
 6      1 +2.6141198e-09 6.88680000e+02 7.81860800e-03 9.73678900e-02
       -4 -1    0    0    0  501 -0.0000000000e+00 +0.0000000000e+00 +2.7466725479e+02 2.7467019087e+02 1.2700000000e+00 0.0000e+00 -1.0000e+00
        4 -1    0    0  501    0 +0.0000000000e+00 -0.0000000000e+00 -4.3167991083e+02 4.3168177899e+02 1.2700000000e+00 0.0000e+00 -1.0000e+00
      -13  1    1    2    0    0 -2.0142338892e+01 -2.2100510653e+01 -3.9142555477e+01 4.9257458323e+01 1.0566000000e-01 0.0000e+00 -1.0000e+00
       13  1    1    2    0    0 +8.8272008195e+01 +1.7151779290e+01 -7.6922432190e+01 1.1833512877e+02 1.0566000000e-01 0.0000e+00 1.0000e+00
    10002  1    1    2    0    0 -2.7324998871e+02 +5.7128300288e+01 -6.4587514384e+01 3.0348104724e+02 1.0000000000e+02 0.0000e+00 0.0000e+00
   -10002  1    1    2    0    0 +2.0512031940e+02 -5.2179568925e+01 +2.3639846009e+01 2.3527833552e+02 1.0000000000e+02 0.0000e+00 0.0000e+00
<mgrwt>
<rscale>  0 0.68867999E+03</rscale>
<asrwt>0</asrwt>
<pdfrwt beam="1">  1        4 0.10792058E+00 0.68867999E+03</pdfrwt>
<pdfrwt beam="2">  1       -4 0.68667415E-01 0.68867999E+03</pdfrwt>
<totfact> 0.26346354E+00</totfact>
</mgrwt>
</event>
<event>
 6      1 +2.6141198e-09 3.55766600e+02 7.81860800e-03 1.06027300e-01
        4 -1    0    0  501    0 +0.0000000000e+00 +0.0000000000e+00 +2.0486474141e+02 2.0486867788e+02 1.2700000000e+00 0.0000e+00 1.0000e+00
       -4 -1    0    0    0  501 -0.0000000000e+00 -0.0000000000e+00 -1.5444735156e+02 1.5445257299e+02 1.2700000000e+00 0.0000e+00 1.0000e+00
      -13  1    1    2    0    0 -5.6842299603e+01 +2.8298817116e-01 +6.4881000437e+01 8.6259390725e+01 1.0566000000e-01 0.0000e+00 1.0000e+00
       13  1    1    2    0    0 +9.6958427131e+00 +2.2476637300e+01 -2.2157174646e+01 3.3017573239e+01 1.0566000000e-01 0.0000e+00 -1.0000e+00
    10002  1    1    2    0    0 -3.3580805871e+01 -1.8630163655e+01 -1.8803744662e+01 1.0875814606e+02 1.0000000000e+02 0.0000e+00 0.0000e+00
   -10002  1    1    2    0    0 +8.0727262761e+01 -4.1294618169e+00 +2.6497308726e+01 1.3128614084e+02 1.0000000000e+02 0.0000e+00 0.0000e+00
<mgrwt>
<rscale>  0 0.35576656E+03</rscale>
<asrwt>0</asrwt>
<pdfrwt beam="1">  1        4 0.51217330E-01 0.35576656E+03</pdfrwt>
<pdfrwt beam="2">  1       -4 0.38612983E-01 0.35576656E+03</pdfrwt>
<totfact> 0.45393531E+01</totfact>
</mgrwt>
</event>
<event>
 6      1 +2.6141198e-09 5.03053600e+02 7.81860800e-03 1.01298500e-01
        4 -1    0    0  501    0 +0.0000000000e+00 +0.0000000000e+00 +4.7434269524e+02 4.7434439538e+02 1.2700000000e+00 0.0000e+00 1.0000e+00
       -4 -1    0    0    0  501 -0.0000000000e+00 -0.0000000000e+00 -1.3337060394e+02 1.3337665049e+02 1.2700000000e+00 0.0000e+00 1.0000e+00
      -13  1    1    2    0    0 +2.8500954850e+01 +1.7635964098e+01 +8.3997041631e+01 9.0436971554e+01 1.0566000000e-01 0.0000e+00 -1.0000e+00
       13  1    1    2    0    0 -3.3390105174e+01 -9.1397665589e+00 -2.8463703125e+00 3.4735391811e+01 1.0566000000e-01 0.0000e+00 1.0000e+00
    10002  1    1    2    0    0 -3.6524801583e+01 +1.6838255749e+02 +1.2371745023e+02 2.3450533957e+02 1.0000000000e+02 0.0000e+00 0.0000e+00
   -10002  1    1    2    0    0 +4.1413951907e+01 -1.7687875503e+02 +1.3610396975e+02 2.4804334293e+02 1.0000000000e+02 0.0000e+00 0.0000e+00
<mgrwt>
<rscale>  0 0.50305358E+03</rscale>
<asrwt>0</asrwt>
<pdfrwt beam="1">  1        4 0.11858664E+00 0.50305358E+03</pdfrwt>
<pdfrwt beam="2">  1       -4 0.33343620E-01 0.50305358E+03</pdfrwt>
<totfact> 0.93227975E+00</totfact>
</mgrwt>
</event>
<event>
 6      1 +2.6141198e-09 4.27024200e+02 7.81860800e-03 1.03480400e-01
        4 -1    0    0  501    0 +0.0000000000e+00 +0.0000000000e+00 +2.6210855011e+02 2.6211162687e+02 1.2700000000e+00 0.0000e+00 -1.0000e+00
       -4 -1    0    0    0  501 -0.0000000000e+00 -0.0000000000e+00 -1.7391930230e+02 1.7392393915e+02 1.2700000000e+00 0.0000e+00 -1.0000e+00
      -13  1    1    2    0    0 -2.3373437182e+01 -5.9345304902e+00 -4.2245767862e+01 4.8644139258e+01 1.0566000000e-01 0.0000e+00 1.0000e+00
       13  1    1    2    0    0 -3.6323446181e+01 +1.6861267211e+01 +5.3973688783e+01 6.7207628431e+01 1.0566000000e-01 0.0000e+00 -1.0000e+00
    10002  1    1    2    0    0 -7.6482827327e+01 -5.2940164914e+01 +2.7261698469e+01 1.3926767084e+02 1.0000000000e+02 0.0000e+00 0.0000e+00
   -10002  1    1    2    0    0 +1.3617971069e+02 +4.2013428193e+01 +4.9199628424e+01 1.8091612750e+02 1.0000000000e+02 0.0000e+00 0.0000e+00
<mgrwt>
<rscale>  0 0.42702420E+03</rscale>
<asrwt>0</asrwt>
<pdfrwt beam="1">  1        4 0.65528101E-01 0.42702420E+03</pdfrwt>
<pdfrwt beam="2">  1       -4 0.43480790E-01 0.42702420E+03</pdfrwt>
<totfact> 0.21448889E+01</totfact>
</mgrwt>
</event>
<event>
 6      1 +2.6141198e-09 5.10983800e+02 7.81860800e-03 1.01095100e-01
       -4 -1    0    0    0  501 -0.0000000000e+00 +0.0000000000e+00 +3.1963285702e+02 3.1963538007e+02 1.2700000000e+00 0.0000e+00 -1.0000e+00
        4 -1    0    0  501    0 +0.0000000000e+00 -0.0000000000e+00 -2.0421685811e+02 2.0422080706e+02 1.2700000000e+00 0.0000e+00 -1.0000e+00
      -13  1    1    2    0    0 -3.7749899383e+01 -5.0755827988e+01 -4.5293225542e+01 7.7799077258e+01 1.0566000000e-01 0.0000e+00 1.0000e+00
       13  1    1    2    0    0 +2.5313372409e+01 -2.8065078696e+00 +1.7071761759e+01 3.0661042427e+01 1.0566000000e-01 0.0000e+00 -1.0000e+00
    10002  1    1    2    0    0 -2.4057814290e+01 -1.3695139036e+02 +5.5611707370e+01 1.8007532798e+02 1.0000000000e+02 0.0000e+00 0.0000e+00
   -10002  1    1    2    0    0 +3.6494341265e+01 +1.9051372621e+02 +8.8025755329e+01 2.3532073946e+02 1.0000000000e+02 0.0000e+00 0.0000e+00
<mgrwt>
<rscale>  0 0.51098381E+03</rscale>
<asrwt>0</asrwt>
<pdfrwt beam="1">  1        4 0.51055024E-01 0.51098381E+03</pdfrwt>
<pdfrwt beam="2">  1       -4 0.79909023E-01 0.51098381E+03</pdfrwt>
<totfact> 0.10007637E+01</totfact>
</mgrwt>
</event>
<event>
 6      1 +2.6141198e-09 5.25817200e+02 7.81860800e-03 1.00725200e-01
        4 -1    0    0  501    0 +0.0000000000e+00 +0.0000000000e+00 +2.4245667483e+02 2.4246000096e+02 1.2700000000e+00 0.0000e+00 -1.0000e+00
       -4 -1    0    0    0  501 -0.0000000000e+00 -0.0000000000e+00 -2.8507897540e+02 2.8508180425e+02 1.2700000000e+00 0.0000e+00 -1.0000e+00
      -13  1    1    2    0    0 -2.2475330678e+01 -5.9711214778e+01 -5.0798887509e+01 8.1554324199e+01 1.0566000000e-01 0.0000e+00 1.0000e+00
       13  1    1    2    0    0 +2.7131278457e+01 +2.2248929233e+01 -4.6551086605e+01 5.8293532668e+01 1.0566000000e-01 0.0000e+00 -1.0000e+00
    10002  1    1    2    0    0 +1.2540147738e+02 -3.9453022859e+01 +1.0977395886e+02 1.9832396120e+02 1.0000000000e+02 0.0000e+00 0.0000e+00
   -10002  1    1    2    0    0 -1.3005742516e+02 +7.6915308405e+01 -5.5046285318e+01 1.8936998715e+02 1.0000000000e+02 0.0000e+00 0.0000e+00
<mgrwt>
<rscale>  0 0.52581717E+03</rscale>
<asrwt>0</asrwt>
<pdfrwt beam="1">  1        4 0.60614938E-01 0.52581717E+03</pdfrwt>
<pdfrwt beam="2">  1       -4 0.71270513E-01 0.52581717E+03</pdfrwt>
<totfact> 0.89953313E+00</totfact>
</mgrwt>
</event>
<event>
 6      1 +2.6141198e-09 4.47784800e+02 7.81860800e-03 1.02838500e-01
        4 -1    0    0  501    0 +0.0000000000e+00 +0.0000000000e+00 +1.4132351324e+03 1.4132357030e+03 1.2700000000e+00 0.0000e+00 -1.0000e+00
       -4 -1    0    0    0  501 -0.0000000000e+00 -0.0000000000e+00 -3.5458304691e+01 3.5481041016e+01 1.2700000000e+00 0.0000e+00 -1.0000e+00
      -13  1    1    2    0    0 -2.2104161836e+01 -2.4809337220e+01 +1.7898115694e+01 3.7741898378e+01 1.0566000000e-01 0.0000e+00 1.0000e+00
       13  1    1    2    0    0 -2.5363445716e+01 +3.8284181916e+01 +2.2349940949e+02 2.2816875371e+02 1.0566000000e-01 0.0000e+00 -1.0000e+00
    10002  1    1    2    0    0 -9.4642666182e+01 +2.3704120582e+01 +3.5561343735e+02 3.8207333906e+02 1.0000000000e+02 0.0000e+00 0.0000e+00
   -10002  1    1    2    0    0 +1.4211027373e+02 -3.7178965278e+01 +7.8076586516e+02 8.0073275289e+02 1.0000000000e+02 0.0000e+00 0.0000e+00
<mgrwt>
<rscale>  0 0.44778479E+03</rscale>
<asrwt>0</asrwt>
<pdfrwt beam="1">  1        4 0.35331168E+00 0.44778479E+03</pdfrwt>
<pdfrwt beam="2">  1       -4 0.88674900E-02 0.44778479E+03</pdfrwt>
<totfact> 0.29093480E+00</totfact>
</mgrwt>
</event>
<event>
 6      1 +2.6141198e-09 4.47937900e+02 7.81860800e-03 1.02833900e-01
       -4 -1    0    0    0  501 -0.0000000000e+00 +0.0000000000e+00 +8.9007232166e+02 8.9007322771e+02 1.2700000000e+00 0.0000e+00 -1.0000e+00
        4 -1    0    0  501    0 +0.0000000000e+00 -0.0000000000e+00 -5.6349226703e+01 5.6363536529e+01 1.2700000000e+00 0.0000e+00 -1.0000e+00
      -13  1    1    2    0    0 +3.2883895974e+01 +5.0313439366e+00 +1.8197593153e+02 1.8499166429e+02 1.0566000000e-01 0.0000e+00 1.0000e+00
       13  1    1    2    0    0 +1.5306492326e+01 -7.7208364086e+01 +9.3161230298e+01 1.2196083874e+02 1.0566000000e-01 0.0000e+00 -1.0000e+00
    10002  1    1    2    0    0 -3.9855481278e+01 +9.2376757165e+01 +1.1037767970e+02 1.7973635367e+02 1.0000000000e+02 0.0000e+00 0.0000e+00
   -10002  1    1    2    0    0 -8.3349070223e+00 -2.0199737016e+01 +4.4820825342e+02 4.5974790754e+02 1.0000000000e+02 0.0000e+00 0.0000e+00
<mgrwt>
<rscale>  0 0.44793789E+03</rscale>
<asrwt>0</asrwt>
<pdfrwt beam="1">  1        4 0.14089209E-01 0.44793789E+03</pdfrwt>
<pdfrwt beam="2">  1       -4 0.22251998E+00 0.44793789E+03</pdfrwt>
<totfact> 0.81659843E+00</totfact>
</mgrwt>
</event>
<event>
 6      1 +2.6141198e-09 4.57621800e+02 7.81860800e-03 1.02547300e-01
        4 -1    0    0  501    0 +0.0000000000e+00 +0.0000000000e+00 +5.4643286174e+02 5.4643433759e+02 1.2700000000e+00 0.0000e+00 1.0000e+00
       -4 -1    0    0    0  501 -0.0000000000e+00 -0.0000000000e+00 -9.5805471735e+01 9.5813888943e+01 1.2700000000e+00 0.0000e+00 1.0000e+00
      -13  1    1    2    0    0 +5.9673376591e+00 +3.1995146734e+01 +3.1518127318e+01 4.5306754981e+01 1.0566000000e-01 0.0000e+00 1.0000e+00
       13  1    1    2    0    0 -6.3733264022e+01 +1.5684162375e+01 +7.3520490009e+01 9.8555545290e+01 1.0566000000e-01 0.0000e+00 -1.0000e+00
    10002  1    1    2    0    0 +3.0703945079e+01 -1.6914892265e+02 +1.7761350618e+02 2.6664704734e+02 1.0000000000e+02 0.0000e+00 0.0000e+00
   -10002  1    1    2    0    0 +2.7061981283e+01 +1.2146961354e+02 +1.6797526650e+02 2.3173887892e+02 1.0000000000e+02 0.0000e+00 0.0000e+00
<mgrwt>
<rscale>  0 0.45762183E+03</rscale>
<asrwt>0</asrwt>
<pdfrwt beam="1">  1        4 0.13660945E+00 0.45762183E+03</pdfrwt>
<pdfrwt beam="2">  1       -4 0.23952605E-01 0.45762183E+03</pdfrwt>
<totfact> 0.12267106E+01</totfact>
</mgrwt>
</event>
<event>
 6      1 +2.6141198e-09 3.88030100e+02 7.81860800e-03 1.04800500e-01
        4 -1    0    0  501    0 +0.0000000000e+00 +0.0000000000e+00 +2.9624481616e+02 2.9624753839e+02 1.2700000000e+00 0.0000e+00 -1.0000e+00
       -4 -1    0    0    0  501 -0.0000000000e+00 -0.0000000000e+00 -1.2705681148e+02 1.2706315848e+02 1.2700000000e+00 0.0000e+00 -1.0000e+00
      -13  1    1    2    0    0 +8.1093209759e+01 +4.7452791068e+01 +9.6343348758e+00 9.4449497731e+01 1.0566000000e-01 0.0000e+00 -1.0000e+00
       13  1    1    2    0    0 -1.2480071914e+01 +1.3304345713e+00 +5.2211205571e+01 5.3698635014e+01 1.0566000000e-01 0.0000e+00 1.0000e+00
    10002  1    1    2    0    0 -3.7842974328e+01 -4.2511125497e+01 +1.2385586585e+02 1.6905490825e+02 1.0000000000e+02 0.0000e+00 0.0000e+00
   -10002  1    1    2    0    0 -3.0770163517e+01 -6.2721001426e+00 -1.6513401618e+01 1.0610765588e+02 1.0000000000e+02 0.0000e+00 0.0000e+00
<mgrwt>
<rscale>  0 0.38803011E+03</rscale>
<asrwt>0</asrwt>
<pdfrwt beam="1">  1        4 0.74062337E-01 0.38803011E+03</pdfrwt>
<pdfrwt beam="2">  1       -4 0.31765337E-01 0.38803011E+03</pdfrwt>
<totfact> 0.30353326E+01</totfact>
</mgrwt>
</event>
<event>
 6      1 +2.6141198e-09 3.33141000e+02 7.81860800e-03 1.06975500e-01
       -4 -1    0    0    0  501 -0.0000000000e+00 +0.0000000000e+00 +4.7893278110e+02 4.7893446494e+02 1.2700000000e+00 0.0000e+00 1.0000e+00
        4 -1    0    0  501    0 +0.0000000000e+00 -0.0000000000e+00 -5.7923649800e+01 5.7937570765e+01 1.2700000000e+00 0.0000e+00 1.0000e+00
      -13  1    1    2    0    0 -1.5566755716e+01 -3.1259971141e+01 +1.0007987620e+02 1.0599765311e+02 1.0566000000e-01 0.0000e+00 -1.0000e+00
       13  1    1    2    0    0 -8.1060838455e+00 -1.9010830638e+01 -8.3460857140e+00 2.2288754735e+01 1.0566000000e-01 0.0000e+00 1.0000e+00
    10002  1    1    2    0    0 +2.7593468468e+01 +6.5893577626e+00 +2.5809236237e+02 2.7823818331e+02 1.0000000000e+02 0.0000e+00 0.0000e+00
   -10002  1    1    2    0    0 -3.9206289062e+00 +4.3681444016e+01 +7.1182978434e+01 1.3034744455e+02 1.0000000000e+02 0.0000e+00 0.0000e+00
<mgrwt>
<rscale>  0 0.33314095E+03</rscale>
<asrwt>0</asrwt>
<pdfrwt beam="1">  1        4 0.14482863E-01 0.33314095E+03</pdfrwt>
<pdfrwt beam="2">  1       -4 0.11973514E+00 0.33314095E+03</pdfrwt>
<totfact> 0.41765447E+01</totfact>
</mgrwt>
</event>
<event>
 6      1 +2.6141198e-09 1.08599600e+03 7.81860800e-03 9.21894900e-02
        4 -1    0    0  501    0 +0.0000000000e+00 +0.0000000000e+00 +7.4731970084e+02 7.4732077997e+02 1.2700000000e+00 0.0000e+00 1.0000e+00
       -4 -1    0    0    0  501 -0.0000000000e+00 -0.0000000000e+00 -3.9453700155e+02 3.9453904558e+02 1.2700000000e+00 0.0000e+00 1.0000e+00
      -13  1    1    2    0    0 -5.7675331305e+01 +2.4568922627e+01 -3.4355939908e+01 7.1487184664e+01 1.0566000000e-01 0.0000e+00 1.0000e+00
       13  1    1    2    0    0 +1.3907419559e+01 +1.4169098211e+01 +3.5587164775e+01 4.0750915617e+01 1.0566000000e-01 0.0000e+00 -1.0000e+00
    10002  1    1    2    0    0 +4.6241337522e+02 +1.8038110181e+01 +3.6098639608e+02 5.9536768569e+02 1.0000000000e+02 0.0000e+00 0.0000e+00
   -10002  1    1    2    0    0 -4.1864546348e+02 -5.6776131019e+01 -9.4349216539e+00 4.3425403958e+02 1.0000000000e+02 0.0000e+00 0.0000e+00
<mgrwt>
<rscale>  0 0.10859964E+04</rscale>
<asrwt>0</asrwt>
<pdfrwt beam="1">  1        4 0.18683031E+00 0.10859964E+04</pdfrwt>
<pdfrwt beam="2">  1       -4 0.98634642E-01 0.10859964E+04</pdfrwt>
<totfact> 0.26586289E-01</totfact>
</mgrwt>
</event>
<event>
 6      1 +2.6141198e-09 4.63081700e+02 7.81860800e-03 1.02389100e-01
       -4 -1    0    0    0  501 -0.0000000000e+00 +0.0000000000e+00 +4.9597196153e+02 4.9597358752e+02 1.2700000000e+00 0.0000e+00 -1.0000e+00
        4 -1    0    0  501    0 +0.0000000000e+00 -0.0000000000e+00 -1.0808759823e+02 1.0809505905e+02 1.2700000000e+00 0.0000e+00 -1.0000e+00
      -13  1    1    2    0    0 +5.9224042305e+01 +7.3305776986e+01 +6.4240540175e+01 1.1405298020e+02 1.0566000000e-01 0.0000e+00 -1.0000e+00
       13  1    1    2    0    0 -1.7778766230e+01 +2.5398283671e+01 +1.0252029662e+02 1.0710546076e+02 1.0566000000e-01 0.0000e+00 1.0000e+00
    10002  1    1    2    0    0 -1.4328934270e+01 -7.1963074408e+01 +2.4379133844e+02 2.7352919247e+02 1.0000000000e+02 0.0000e+00 0.0000e+00
   -10002  1    1    2    0    0 -2.7116341805e+01 -2.6740986249e+01 -2.2667811935e+01 1.0938101314e+02 1.0000000000e+02 0.0000e+00 0.0000e+00
<mgrwt>
<rscale>  0 0.46308169E+03</rscale>
<asrwt>0</asrwt>
<pdfrwt beam="1">  1        4 0.27023036E-01 0.46308169E+03</pdfrwt>
<pdfrwt beam="2">  1       -4 0.12399412E+00 0.46308169E+03</pdfrwt>
<totfact> 0.12477796E+01</totfact>
</mgrwt>
</event>
<event>
 6      1 +2.6141198e-09 4.08786000e+02 7.81860800e-03 1.04077900e-01
       -4 -1    0    0    0  501 -0.0000000000e+00 +0.0000000000e+00 +2.0445103738e+02 2.0445498180e+02 1.2700000000e+00 0.0000e+00 -1.0000e+00
        4 -1    0    0  501    0 +0.0000000000e+00 -0.0000000000e+00 -2.0432712232e+02 2.0433106914e+02 1.2700000000e+00 0.0000e+00 -1.0000e+00
      -13  1    1    2    0    0 -1.5176162707e+01 +4.2473899457e+01 -4.8030214068e+00 4.5358882573e+01 1.0566000000e-01 0.0000e+00 -1.0000e+00
       13  1    1    2    0    0 -3.4293577419e+01 -1.6389469709e+01 -7.4431511879e+01 8.3574668974e+01 1.0566000000e-01 0.0000e+00 1.0000e+00
    10002  1    1    2    0    0 +7.5540138011e+01 +3.8494071431e+01 -5.7244219424e+00 1.3122833152e+02 1.0000000000e+02 0.0000e+00 0.0000e+00
   -10002  1    1    2    0    0 -2.6070397886e+01 -6.4578501179e+01 +8.5082870286e+01 1.4862416788e+02 1.0000000000e+02 0.0000e+00 0.0000e+00
<mgrwt>
<rscale>  0 0.40878603E+03</rscale>
<asrwt>0</asrwt>
<pdfrwt beam="1">  1        4 0.51082767E-01 0.40878603E+03</pdfrwt>
<pdfrwt beam="2">  1       -4 0.51113746E-01 0.40878603E+03</pdfrwt>
<totfact> 0.26059161E+01</totfact>
</mgrwt>
</event>
<event>
 6      1 +2.6141198e-09 3.43545900e+02 7.81860800e-03 1.06529600e-01
        4 -1    0    0  501    0 +0.0000000000e+00 +0.0000000000e+00 +3.8181433738e+01 3.8202549421e+01 1.2700000000e+00 0.0000e+00 -1.0000e+00
       -4 -1    0    0    0  501 -0.0000000000e+00 -0.0000000000e+00 -7.7254721711e+02 7.7254826099e+02 1.2700000000e+00 0.0000e+00 -1.0000e+00
      -13  1    1    2    0    0 -3.6957342981e+01 +2.3084139240e+01 -1.7264507409e+02 1.7805913472e+02 1.0566000000e-01 0.0000e+00 -1.0000e+00
       13  1    1    2    0    0 -2.1720966876e+01 -5.4672242975e+01 -6.2969866075e+01 8.6174646802e+01 1.0566000000e-01 0.0000e+00 1.0000e+00
    10002  1    1    2    0    0 +1.5894110857e+01 -1.4214135025e+00 -1.6146151338e+02 1.9058977801e+02 1.0000000000e+02 0.0000e+00 0.0000e+00
   -10002  1    1    2    0    0 +4.2784199000e+01 +3.3009517238e+01 -3.3728932982e+02 3.5592725088e+02 1.0000000000e+02 0.0000e+00 0.0000e+00
<mgrwt>
<rscale>  0 0.34354588E+03</rscale>
<asrwt>0</asrwt>
<pdfrwt beam="1">  1        4 0.95481309E-02 0.34354588E+03</pdfrwt>
<pdfrwt beam="2">  1       -4 0.19313952E+00 0.34354588E+03</pdfrwt>
<totfact> 0.24384509E+01</totfact>
</mgrwt>
</event>
<event>
 6      1 +2.6141198e-09 4.07338400e+02 7.81860800e-03 1.04126800e-01
        4 -1    0    0  501    0 +0.0000000000e+00 +0.0000000000e+00 +1.5392716502e+03 1.5392721741e+03 1.2700000000e+00 0.0000e+00 1.0000e+00
       -4 -1    0    0    0  501 -0.0000000000e+00 -0.0000000000e+00 -2.6933067310e+01 2.6962993431e+01 1.2700000000e+00 0.0000e+00 1.0000e+00
      -13  1    1    2    0    0 -2.4517558574e+01 -4.6705638188e+01 +1.3080657303e+02 1.4104218528e+02 1.0566000000e-01 0.0000e+00 1.0000e+00
       13  1    1    2    0    0 -3.2799974673e+01 +4.4027749430e+01 +9.9143569523e+01 1.1333022368e+02 1.0566000000e-01 0.0000e+00 -1.0000e+00
    10002  1    1    2    0    0 -4.6109367630e+01 -3.5423689937e+01 +7.5757982999e+02 7.6636030065e+02 1.0000000000e+02 0.0000e+00 0.0000e+00
   -10002  1    1    2    0    0 +1.0342690088e+02 +3.8101578695e+01 +5.2480861032e+02 5.4550245791e+02 1.0000000000e+02 0.0000e+00 0.0000e+00
<mgrwt>
<rscale>  0 0.40733845E+03</rscale>
<asrwt>0</asrwt>
<pdfrwt beam="1">  1        4 0.38482173E+00 0.40733845E+03</pdfrwt>
<pdfrwt beam="2">  1       -4 0.67370730E-02 0.40733845E+03</pdfrwt>
<totfact> 0.28946284E+00</totfact>
</mgrwt>
</event>
<event>
 6      1 +2.6141198e-09 4.10513800e+02 7.81860800e-03 1.04019900e-01
       -4 -1    0    0    0  501 -0.0000000000e+00 +0.0000000000e+00 +2.2876262151e+02 2.2876614675e+02 1.2700000000e+00 0.0000e+00 1.0000e+00
        4 -1    0    0  501    0 +0.0000000000e+00 -0.0000000000e+00 -1.8415927268e+02 1.8416365172e+02 1.2700000000e+00 0.0000e+00 1.0000e+00
      -13  1    1    2    0    0 +4.0667244217e+01 -2.6929940860e+01 +2.7039832712e+01 5.5769258414e+01 1.0566000000e-01 0.0000e+00 1.0000e+00
       13  1    1    2    0    0 -1.8185981145e+01 +3.7849215987e+01 +1.9311540416e+01 4.6219474449e+01 1.0566000000e-01 0.0000e+00 -1.0000e+00
    10002  1    1    2    0    0 +6.2458876226e+01 +7.9866228749e+01 +3.6205098379e+01 1.4693717999e+02 1.0000000000e+02 0.0000e+00 0.0000e+00
   -10002  1    1    2    0    0 -8.4940139298e+01 -9.0785503876e+01 -3.7953122675e+01 1.6400388562e+02 1.0000000000e+02 0.0000e+00 0.0000e+00
<mgrwt>
<rscale>  0 0.41051378E+03</rscale>
<asrwt>0</asrwt>
<pdfrwt beam="1">  1        4 0.46040806E-01 0.41051378E+03</pdfrwt>
<pdfrwt beam="2">  1       -4 0.57191643E-01 0.41051378E+03</pdfrwt>
<totfact> 0.25509193E+01</totfact>
</mgrwt>
</event>
<event>
 6      1 +2.6141198e-09 5.37412800e+02 7.81860800e-03 1.00445000e-01
        4 -1    0    0  501    0 +0.0000000000e+00 +0.0000000000e+00 +3.9517088229e+01 3.9537490589e+01 1.2700000000e+00 0.0000e+00 -1.0000e+00
       -4 -1    0    0    0  501 -0.0000000000e+00 -0.0000000000e+00 -1.8266449054e+03 1.8266453468e+03 1.2700000000e+00 0.0000e+00 -1.0000e+00
      -13  1    1    2    0    0 -5.0128784936e+01 +1.2538643939e+01 -1.4690992736e+02 1.5573262533e+02 1.0566000000e-01 0.0000e+00 1.0000e+00
       13  1    1    2    0    0 +4.6692584335e+01 -1.7490296587e+01 -1.1590743250e+02 1.2617706598e+02 1.0566000000e-01 0.0000e+00 -1.0000e+00
    10002  1    1    2    0    0 -1.2731737183e+02 -8.8423349856e+01 -3.5823315843e+02 4.0293845407e+02 1.0000000000e+02 0.0000e+00 0.0000e+00
   -10002  1    1    2    0    0 +1.3075357243e+02 +9.3375002504e+01 -1.1660772988e+03 1.1813346921e+03 1.0000000000e+02 0.0000e+00 0.0000e+00
<mgrwt>
<rscale>  0 0.53741283E+03</rscale>
<asrwt>0</asrwt>
<pdfrwt beam="1">  1        4 0.98818837E-02 0.53741283E+03</pdfrwt>
<pdfrwt beam="2">  1       -4 0.45666355E+00 0.53741283E+03</pdfrwt>
<totfact> 0.46719147E-01</totfact>
</mgrwt>
</event>
<event>
 6      1 +2.6141198e-09 4.00449300e+02 7.81860800e-03 1.04362400e-01
        4 -1    0    0  501    0 +0.0000000000e+00 +0.0000000000e+00 +6.0872987459e+01 6.0886234095e+01 1.2700000000e+00 0.0000e+00 -1.0000e+00
       -4 -1    0    0    0  501 -0.0000000000e+00 -0.0000000000e+00 -6.5849740472e+02 6.5849862940e+02 1.2700000000e+00 0.0000e+00 -1.0000e+00
      -13  1    1    2    0    0 -4.4674067282e+01 -1.8838245827e+01 -1.0436924141e+02 1.1508084771e+02 1.0566000000e-01 0.0000e+00 1.0000e+00
       13  1    1    2    0    0 +4.9640831799e+01 -3.2091172811e+00 -2.3585205712e+01 5.5052554054e+01 1.0566000000e-01 0.0000e+00 -1.0000e+00
    10002  1    1    2    0    0 -7.2000493836e+01 -2.9842039906e+01 -1.1516026819e+02 1.7127902916e+02 1.0000000000e+02 0.0000e+00 0.0000e+00
   -10002  1    1    2    0    0 +6.7033729320e+01 +5.1889403014e+01 -3.5450970194e+02 3.7797243257e+02 1.0000000000e+02 0.0000e+00 0.0000e+00
<mgrwt>
<rscale>  0 0.40044929E+03</rscale>
<asrwt>0</asrwt>
<pdfrwt beam="1">  1        4 0.15220058E-01 0.40044929E+03</pdfrwt>
<pdfrwt beam="2">  1       -4 0.16462614E+00 0.40044929E+03</pdfrwt>
<totfact> 0.17073326E+01</totfact>
</mgrwt>
</event>
<event>
 6      1 +2.6141198e-09 3.53265900e+02 7.81860800e-03 1.06128300e-01
        4 -1    0    0  501    0 +0.0000000000e+00 +0.0000000000e+00 +2.4251924966e+02 2.4252257494e+02 1.2700000000e+00 0.0000e+00 -1.0000e+00
       -4 -1    0    0    0  501 -0.0000000000e+00 -0.0000000000e+00 -1.2863896096e+02 1.2864522990e+02 1.2700000000e+00 0.0000e+00 -1.0000e+00
      -13  1    1    2    0    0 +1.4170082509e+01 -6.5229780583e+01 -2.9507666786e+01 7.2982388810e+01 1.0566000000e-01 0.0000e+00 1.0000e+00
       13  1    1    2    0    0 -3.4983768008e+01 +1.1295450888e+01 +9.4174690268e+00 3.7949323073e+01 1.0566000000e-01 0.0000e+00 -1.0000e+00
    10002  1    1    2    0    0 +2.5768695248e+01 +6.3210640907e+01 +8.7976996561e+01 1.4966483456e+02 1.0000000000e+02 0.0000e+00 0.0000e+00
   -10002  1    1    2    0    0 -4.9550097483e+00 -9.2763112121e+00 +4.5993489899e+01 1.1057125840e+02 1.0000000000e+02 0.0000e+00 0.0000e+00
<mgrwt>
<rscale>  0 0.35326593E+03</rscale>
<asrwt>0</asrwt>
<pdfrwt beam="1">  1        4 0.60631011E-01 0.35326593E+03</pdfrwt>
<pdfrwt beam="2">  1       -4 0.32160940E-01 0.35326593E+03</pdfrwt>
<totfact> 0.45512719E+01</totfact>
</mgrwt>
</event>
<event>
 6      1 +2.6141198e-09 4.00694300e+02 7.81860800e-03 1.04354000e-01
        4 -1    0    0  501    0 +0.0000000000e+00 +0.0000000000e+00 +2.7813161075e+02 2.7813451026e+02 1.2700000000e+00 0.0000e+00 -1.0000e+00
       -4 -1    0    0    0  501 -0.0000000000e+00 -0.0000000000e+00 -1.4431006818e+02 1.4431565638e+02 1.2700000000e+00 0.0000e+00 -1.0000e+00
      -13  1    1    2    0    0 +1.3375362529e+01 +1.3682728669e+01 +3.4128965457e+01 3.9126906775e+01 1.0566000000e-01 0.0000e+00 1.0000e+00
       13  1    1    2    0    0 -9.6891361716e+01 +1.4978702652e+01 -8.6696328484e+00 9.8424952152e+01 1.0566000000e-01 0.0000e+00 -1.0000e+00
    10002  1    1    2    0    0 +4.2834363996e+00 +4.7521662019e+01 +2.1796416663e+01 1.1292360235e+02 1.0000000000e+02 0.0000e+00 0.0000e+00
   -10002  1    1    2    0    0 +7.9232562787e+01 -7.6183093340e+01 +8.6565793302e+01 1.7197470537e+02 1.0000000000e+02 0.0000e+00 0.0000e+00
<mgrwt>
<rscale>  0 0.40069432E+03</rscale>
<asrwt>0</asrwt>
<pdfrwt beam="1">  1        4 0.69533963E-01 0.40069432E+03</pdfrwt>
<pdfrwt beam="2">  1       -4 0.36078578E-01 0.40069432E+03</pdfrwt>
<totfact> 0.27264049E+01</totfact>
</mgrwt>
</event>
<event>
 6      1 +2.6141198e-09 4.02172600e+02 7.81860800e-03 1.04303000e-01
       -4 -1    0    0    0  501 -0.0000000000e+00 +0.0000000000e+00 +7.1162479476e+02 7.1162592801e+02 1.2700000000e+00 0.0000e+00 1.0000e+00
        4 -1    0    0  501    0 +0.0000000000e+00 -0.0000000000e+00 -5.6813382519e+01 5.6827575465e+01 1.2700000000e+00 0.0000e+00 1.0000e+00
      -13  1    1    2    0    0 +3.3403394132e+01 +6.0999907298e+00 +9.7758718830e+01 1.0348804229e+02 1.0566000000e-01 0.0000e+00 -1.0000e+00
       13  1    1    2    0    0 -5.4514950521e+01 -2.5553927094e+01 +6.6132396690e+01 8.9433707718e+01 1.0566000000e-01 0.0000e+00 1.0000e+00
    10002  1    1    2    0    0 -9.4331436609e+01 -2.7710046588e+01 +2.4238605422e+02 2.8003083026e+02 1.0000000000e+02 0.0000e+00 0.0000e+00
   -10002  1    1    2    0    0 +1.1544299300e+02 +4.7163982952e+01 +2.4853424251e+02 2.9550092321e+02 1.0000000000e+02 0.0000e+00 0.0000e+00
<mgrwt>
<rscale>  0 0.40217260E+03</rscale>
<asrwt>0</asrwt>
<pdfrwt beam="1">  1        4 0.14205262E-01 0.40217260E+03</pdfrwt>
<pdfrwt beam="2">  1       -4 0.17790811E+00 0.40217260E+03</pdfrwt>
<totfact> 0.15586574E+01</totfact>
</mgrwt>
</event>
<event>
 6      1 +2.6141198e-09 4.56647900e+02 7.81860800e-03 1.02575800e-01
        4 -1    0    0  501    0 +0.0000000000e+00 +0.0000000000e+00 +6.2410366477e+02 6.2410495694e+02 1.2700000000e+00 0.0000e+00 -1.0000e+00
       -4 -1    0    0    0  501 -0.0000000000e+00 -0.0000000000e+00 -8.3524500276e+01 8.3534154969e+01 1.2700000000e+00 0.0000e+00 -1.0000e+00
      -13  1    1    2    0    0 -5.7406995451e+01 -5.0759640367e+01 +1.3736885617e+02 1.5729691041e+02 1.0566000000e-01 0.0000e+00 -1.0000e+00
       13  1    1    2    0    0 +2.4859816787e+01 +2.0280120308e+01 +4.8320902249e+01 5.8001849355e+01 1.0566000000e-01 0.0000e+00 1.0000e+00
    10002  1    1    2    0    0 +1.2961719864e+02 -4.3978965019e+01 +1.1410135600e+02 2.0433767882e+02 1.0000000000e+02 0.0000e+00 0.0000e+00
   -10002  1    1    2    0    0 -9.7070019973e+01 +7.4458485078e+01 +2.4078805008e+02 2.8800267332e+02 1.0000000000e+02 0.0000e+00 0.0000e+00
<mgrwt>
<rscale>  0 0.45664787E+03</rscale>
<asrwt>0</asrwt>
<pdfrwt beam="1">  1        4 0.15602728E+00 0.45664787E+03</pdfrwt>
<pdfrwt beam="2">  1       -4 0.20882494E-01 0.45664787E+03</pdfrwt>
<totfact> 0.11187815E+01</totfact>
</mgrwt>
</event>
<event>
 6      1 +2.6141198e-09 4.11521100e+02 7.81860800e-03 1.03986200e-01
       -4 -1    0    0    0  501 -0.0000000000e+00 +0.0000000000e+00 +6.7891967134e+02 6.7892085918e+02 1.2700000000e+00 0.0000e+00 -1.0000e+00
        4 -1    0    0  501    0 +0.0000000000e+00 -0.0000000000e+00 -6.2352242073e+01 6.2365174509e+01 1.2700000000e+00 0.0000e+00 -1.0000e+00
      -13  1    1    2    0    0 +4.7972681964e+01 +4.5103692234e+01 +2.7807111552e+02 2.8576087507e+02 1.0566000000e-01 0.0000e+00 -1.0000e+00
       13  1    1    2    0    0 -2.3918486186e+01 +5.0005469044e+00 +1.5000074206e+01 2.8672510197e+01 1.0566000000e-01 0.0000e+00 1.0000e+00
    10002  1    1    2    0    0 -2.1587321313e+01 +4.3075698573e+01 +2.4557888247e+02 2.6950049307e+02 1.0000000000e+02 0.0000e+00 0.0000e+00
   -10002  1    1    2    0    0 -2.4668744651e+00 -9.3179937712e+01 +7.7917357059e+01 1.5735215535e+02 1.0000000000e+02 0.0000e+00 0.0000e+00
<mgrwt>
<rscale>  0 0.41152107E+03</rscale>
<asrwt>0</asrwt>
<pdfrwt beam="1">  1        4 0.15589826E-01 0.41152107E+03</pdfrwt>
<pdfrwt beam="2">  1       -4 0.16973168E+00 0.41152107E+03</pdfrwt>
<totfact> 0.15070292E+01</totfact>
</mgrwt>
</event>
<event>
 6      1 +2.6141198e-09 5.90526600e+02 7.81860800e-03 9.92525800e-02
       -4 -1    0    0    0  501 -0.0000000000e+00 +0.0000000000e+00 +8.9875804788e+01 8.9884777278e+01 1.2700000000e+00 0.0000e+00 -1.0000e+00
        4 -1    0    0  501    0 +0.0000000000e+00 -0.0000000000e+00 -9.6995216911e+02 9.6995300055e+02 1.2700000000e+00 0.0000e+00 -1.0000e+00
      -13  1    1    2    0    0 +3.2040771268e+00 +8.1285190647e+01 -1.0177009837e+02 1.3028703855e+02 1.0566000000e-01 0.0000e+00 1.0000e+00
       13  1    1    2    0    0 -2.7654564493e+01 -2.5818148783e+01 -9.5535516313e+01 1.0275406457e+02 1.0566000000e-01 0.0000e+00 -1.0000e+00
    10002  1    1    2    0    0 -1.7882761298e+02 +4.7366418628e+01 -3.8573921590e+02 4.3933772369e+02 1.0000000000e+02 0.0000e+00 0.0000e+00
   -10002  1    1    2    0    0 +2.0327810035e+02 -1.0283346049e+02 -2.9703153375e+02 3.8745895101e+02 1.0000000000e+02 0.0000e+00 0.0000e+00
<mgrwt>
<rscale>  0 0.59052664E+03</rscale>
<asrwt>0</asrwt>
<pdfrwt beam="1">  1        4 0.24248924E+00 0.59052664E+03</pdfrwt>
<pdfrwt beam="2">  1       -4 0.22470180E-01 0.59052664E+03</pdfrwt>
<totfact> 0.26400496E+00</totfact>
</mgrwt>
</event>
<event>
 6      1 +2.6141198e-09 3.41530800e+02 7.81860800e-03 1.06614600e-01
       -4 -1    0    0    0  501 -0.0000000000e+00 +0.0000000000e+00 +7.3660579703e+01 7.3671527079e+01 1.2700000000e+00 0.0000e+00 1.0000e+00
        4 -1    0    0  501    0 +0.0000000000e+00 -0.0000000000e+00 -3.9583957301e+02 3.9584161032e+02 1.2700000000e+00 0.0000e+00 1.0000e+00
      -13  1    1    2    0    0 -1.1894351052e+00 +2.9395362238e+01 +1.3664956288e+01 3.2438314866e+01 1.0566000000e-01 0.0000e+00 1.0000e+00
       13  1    1    2    0    0 +1.6799030464e+01 -1.3112318345e+01 -9.7991442011e+01 1.0028197340e+02 1.0566000000e-01 0.0000e+00 -1.0000e+00
    10002  1    1    2    0    0 -6.9625361606e+01 +6.9088376001e+00 -1.3167513320e+02 1.7953763872e+02 1.0000000000e+02 0.0000e+00 0.0000e+00
   -10002  1    1    2    0    0 +5.4015766247e+01 -2.3191881492e+01 -1.0617737439e+02 1.5725521041e+02 1.0000000000e+02 0.0000e+00 0.0000e+00
<mgrwt>
<rscale>  0 0.34153079E+03</rscale>
<asrwt>0</asrwt>
<pdfrwt beam="1">  1        4 0.98961511E-01 0.34153079E+03</pdfrwt>
<pdfrwt beam="2">  1       -4 0.18416769E-01 0.34153079E+03</pdfrwt>
<totfact> 0.43022557E+01</totfact>
</mgrwt>
</event>
<event>
 6      1 +2.6141198e-09 3.70662100e+02 7.81860800e-03 1.05444000e-01
        4 -1    0    0  501    0 +0.0000000000e+00 +0.0000000000e+00 +7.1547819490e+01 7.1559090085e+01 1.2700000000e+00 0.0000e+00 1.0000e+00
       -4 -1    0    0    0  501 -0.0000000000e+00 -0.0000000000e+00 -4.8001507854e+02 4.8001675859e+02 1.2700000000e+00 0.0000e+00 1.0000e+00
      -13  1    1    2    0    0 -2.0576132234e+01 +8.5157338054e+01 -8.6701139457e+01 1.2325683831e+02 1.0566000000e-01 0.0000e+00 1.0000e+00
       13  1    1    2    0    0 -1.8387798495e+00 -3.1098293163e+01 -2.7127477631e+01 4.1308548215e+01 1.0566000000e-01 0.0000e+00 -1.0000e+00
    10002  1    1    2    0    0 +5.1597477630e+01 +2.7553549789e+01 -1.0927317502e+02 1.5925490443e+02 1.0000000000e+02 0.0000e+00 0.0000e+00
   -10002  1    1    2    0    0 -2.9182565546e+01 -8.1612594681e+01 -1.8536546694e+02 2.2775555773e+02 1.0000000000e+02 0.0000e+00 0.0000e+00
<mgrwt>
<rscale>  0 0.37066213E+03</rscale>
<asrwt>0</asrwt>
<pdfrwt beam="1">  1        4 0.17888575E-01 0.37066213E+03</pdfrwt>
<pdfrwt beam="2">  1       -4 0.12000538E+00 0.37066213E+03</pdfrwt>
<totfact> 0.28704396E+01</totfact>
</mgrwt>
</event>
<event>
 6      1 +2.6141198e-09 4.94314400e+02 7.81860800e-03 1.01527400e-01
        4 -1    0    0  501    0 +0.0000000000e+00 +0.0000000000e+00 +4.0261384029e+02 4.0261584332e+02 1.2700000000e+00 0.0000e+00 1.0000e+00
       -4 -1    0    0    0  501 -0.0000000000e+00 -0.0000000000e+00 -1.5172017866e+02 1.5172549394e+02 1.2700000000e+00 0.0000e+00 1.0000e+00
      -13  1    1    2    0    0 -6.3749512775e+00 -2.5350589842e+01 -5.1451921832e+00 2.6641632378e+01 1.0566000000e-01 0.0000e+00 1.0000e+00
       13  1    1    2    0    0 +2.3215041898e+01 +6.5270445517e+01 +4.7009461446e+01 8.3720187875e+01 1.0566000000e-01 0.0000e+00 -1.0000e+00
    10002  1    1    2    0    0 -3.8224589638e+01 -8.7671094131e+01 -6.1068437809e+01 1.5125043503e+02 1.0000000000e+02 0.0000e+00 0.0000e+00
   -10002  1    1    2    0    0 +2.1384499018e+01 +4.7751238455e+01 +2.7009783018e+02 2.9272908198e+02 1.0000000000e+02 0.0000e+00 0.0000e+00
<mgrwt>
<rscale>  0 0.49431436E+03</rscale>
<asrwt>0</asrwt>
<pdfrwt beam="1">  1        4 0.10065437E+00 0.49431436E+03</pdfrwt>
<pdfrwt beam="2">  1       -4 0.37930960E-01 0.49431436E+03</pdfrwt>
<totfact> 0.10737391E+01</totfact>
</mgrwt>
</event>
<event>
 6      1 +2.6141198e-09 5.58205400e+02 7.81860800e-03 9.99612400e-02
       -4 -1    0    0    0  501 -0.0000000000e+00 +0.0000000000e+00 +1.3371589954e+02 1.3372193047e+02 1.2700000000e+00 0.0000e+00 -1.0000e+00
        4 -1    0    0  501    0 +0.0000000000e+00 -0.0000000000e+00 -5.8254590880e+02 5.8254729315e+02 1.2700000000e+00 0.0000e+00 -1.0000e+00
      -13  1    1    2    0    0 -1.3251543975e+01 +4.8454107836e+00 -6.2742536644e+01 6.4309552106e+01 1.0566000000e-01 0.0000e+00 1.0000e+00
       13  1    1    2    0    0 +1.1297847342e+02 -8.4829577093e+00 -1.8119279231e+02 2.1369823392e+02 1.0566000000e-01 0.0000e+00 -1.0000e+00
    10002  1    1    2    0    0 -1.0277594025e+02 +1.0326115756e+02 +1.4565662662e+01 1.7730741407e+02 1.0000000000e+02 0.0000e+00 0.0000e+00
   -10002  1    1    2    0    0 +3.0490108020e+00 -9.9623610634e+01 -2.1946034296e+02 2.6095402353e+02 1.0000000000e+02 0.0000e+00 0.0000e+00
<mgrwt>
<rscale>  0 0.55820536E+03</rscale>
<asrwt>0</asrwt>
<pdfrwt beam="1">  1        4 0.14563740E+00 0.55820536E+03</pdfrwt>
<pdfrwt beam="2">  1       -4 0.33429903E-01 0.55820536E+03</pdfrwt>
<totfact> 0.55193236E+00</totfact>
</mgrwt>
</event>
<event>
 6      1 +2.6141198e-09 4.54244000e+02 7.81860800e-03 1.02646400e-01
        4 -1    0    0  501    0 +0.0000000000e+00 +0.0000000000e+00 +1.6261005786e+02 1.6261501720e+02 1.2700000000e+00 0.0000e+00 -1.0000e+00
       -4 -1    0    0    0  501 -0.0000000000e+00 -0.0000000000e+00 -3.1721658596e+02 3.1721912822e+02 1.2700000000e+00 0.0000e+00 -1.0000e+00
      -13  1    1    2    0    0 -1.6424347869e+01 +2.8248759270e+00 -9.4073020202e+01 9.5537863807e+01 1.0566000000e-01 0.0000e+00 1.0000e+00
       13  1    1    2    0    0 -5.0203143595e+01 +8.3758217048e+00 +1.0286152036e+01 5.1926160111e+01 1.0566000000e-01 0.0000e+00 -1.0000e+00
    10002  1    1    2    0    0 +1.0842149501e+02 +7.5366407387e+01 +1.9599506904e+01 1.6679165631e+02 1.0000000000e+02 0.0000e+00 0.0000e+00
   -10002  1    1    2    0    0 -4.1794003547e+01 -8.6567105019e+01 -9.0419166836e+01 1.6557846519e+02 1.0000000000e+02 0.0000e+00 0.0000e+00
<mgrwt>
<rscale>  0 0.45424402E+03</rscale>
<asrwt>0</asrwt>
<pdfrwt beam="1">  1        4 0.40653453E-01 0.45424402E+03</pdfrwt>
<pdfrwt beam="2">  1       -4 0.79305083E-01 0.45424402E+03</pdfrwt>
<totfact> 0.16155245E+01</totfact>
</mgrwt>
</event>
<event>
 6      1 +2.6141198e-09 4.12431200e+02 7.81860800e-03 1.03955800e-01
        4 -1    0    0  501    0 +0.0000000000e+00 +0.0000000000e+00 +4.8871247387e+02 4.8871412402e+02 1.2700000000e+00 0.0000e+00 -1.0000e+00
       -4 -1    0    0    0  501 -0.0000000000e+00 -0.0000000000e+00 -8.7007684830e+01 8.7016953057e+01 1.2700000000e+00 0.0000e+00 -1.0000e+00
      -13  1    1    2    0    0 -5.5015388899e+01 +1.8867179843e+01 +7.6794763874e+01 9.6333329712e+01 1.0566000000e-01 0.0000e+00 -1.0000e+00
       13  1    1    2    0    0 +3.8835021732e+01 +4.4267683444e+01 +2.7946395238e+01 6.5182811241e+01 1.0566000000e-01 0.0000e+00 1.0000e+00
    10002  1    1    2    0    0 +7.9436125858e+01 -5.1813756422e+01 +2.5181186776e+02 2.8706093463e+02 1.0000000000e+02 0.0000e+00 0.0000e+00
   -10002  1    1    2    0    0 -6.3255758692e+01 -1.1321106864e+01 +4.5151762163e+01 1.2715400149e+02 1.0000000000e+02 0.0000e+00 0.0000e+00
<mgrwt>
<rscale>  0 0.41243125E+03</rscale>
<asrwt>0</asrwt>
<pdfrwt beam="1">  1        4 0.12217948E+00 0.41243125E+03</pdfrwt>
<pdfrwt beam="2">  1       -4 0.21753286E-01 0.41243125E+03</pdfrwt>
<totfact> 0.19332514E+01</totfact>
</mgrwt>
</event>
<event>
 6      1 +2.6141198e-09 5.30365100e+02 7.81860800e-03 1.00614400e-01
       -4 -1    0    0    0  501 -0.0000000000e+00 +0.0000000000e+00 +2.1962924916e+02 2.1963292099e+02 1.2700000000e+00 0.0000e+00 1.0000e+00
        4 -1    0    0  501    0 +0.0000000000e+00 -0.0000000000e+00 -3.2017646842e+02 3.2017898717e+02 1.2700000000e+00 0.0000e+00 1.0000e+00
      -13  1    1    2    0    0 -3.1649495233e+01 +9.1569234087e+01 +5.6832926121e+01 1.1232367442e+02 1.0566000000e-01 0.0000e+00 -1.0000e+00
       13  1    1    2    0    0 -1.9445987886e+01 +4.4788821317e+01 -1.4744019514e+01 5.1005707870e+01 1.0566000000e-01 0.0000e+00 1.0000e+00
    10002  1    1    2    0    0 -7.0247589035e+01 +2.2258637630e+01 -3.8462166961e+01 1.3003656794e+02 1.0000000000e+02 0.0000e+00 0.0000e+00
   -10002  1    1    2    0    0 +1.2134307215e+02 -1.5861669303e+02 -1.0417395891e+02 2.4644595794e+02 1.0000000000e+02 0.0000e+00 0.0000e+00
<mgrwt>
<rscale>  0 0.53036511E+03</rscale>
<asrwt>0</asrwt>
<pdfrwt beam="1">  1        4 0.80044891E-01 0.53036511E+03</pdfrwt>
<pdfrwt beam="2">  1       -4 0.54908086E-01 0.53036511E+03</pdfrwt>
<totfact> 0.85661040E+00</totfact>
</mgrwt>
</event>
<event>
 6      1 +2.6141198e-09 4.58340800e+02 7.81860800e-03 1.02526400e-01
        4 -1    0    0  501    0 +0.0000000000e+00 +0.0000000000e+00 +6.2524148532e+02 6.2524277514e+02 1.2700000000e+00 0.0000e+00 -1.0000e+00
       -4 -1    0    0    0  501 -0.0000000000e+00 -0.0000000000e+00 -8.3991865971e+01 8.4001466948e+01 1.2700000000e+00 0.0000e+00 -1.0000e+00
      -13  1    1    2    0    0 +2.1893923187e+01 +3.7753063206e+01 +3.1802010197e+01 5.4000154357e+01 1.0566000000e-01 0.0000e+00 1.0000e+00
       13  1    1    2    0    0 +5.9125531166e+01 -6.0780269890e+01 +8.4353492296e+00 8.5212885904e+01 1.0566000000e-01 0.0000e+00 -1.0000e+00
    10002  1    1    2    0    0 -3.5098573128e+01 -3.4352523379e+01 +3.8263835423e+02 3.9852743422e+02 1.0000000000e+02 0.0000e+00 0.0000e+00
   -10002  1    1    2    0    0 -4.5920881225e+01 +5.7379730062e+01 +1.1837390569e+02 1.7150376761e+02 1.0000000000e+02 0.0000e+00 0.0000e+00
<mgrwt>
<rscale>  0 0.45834075E+03</rscale>
<asrwt>0</asrwt>
<pdfrwt beam="1">  1        4 0.15631173E+00 0.45834075E+03</pdfrwt>
<pdfrwt beam="2">  1       -4 0.20999328E-01 0.45834075E+03</pdfrwt>
<totfact> 0.11021004E+01</totfact>
</mgrwt>
</event>
<event>
 6      1 +2.6141198e-09 5.02254100e+02 7.81860800e-03 1.01319200e-01
        4 -1    0    0  501    0 +0.0000000000e+00 +0.0000000000e+00 +1.0654804674e+03 1.0654812243e+03 1.2700000000e+00 0.0000e+00 1.0000e+00
       -4 -1    0    0    0  501 -0.0000000000e+00 -0.0000000000e+00 -5.9181475133e+01 5.9195100295e+01 1.2700000000e+00 0.0000e+00 1.0000e+00
      -13  1    1    2    0    0 -7.8297586829e+00 -1.2184159551e+01 +3.7567648914e+00 1.4962730750e+01 1.0566000000e-01 0.0000e+00 1.0000e+00
       13  1    1    2    0    0 +5.9300667471e+01 +2.1130349754e+01 +3.0318218148e+02 3.0964900641e+02 1.0566000000e-01 0.0000e+00 -1.0000e+00
    10002  1    1    2    0    0 -1.0231014736e+02 -6.9778600713e+01 +1.0160319273e+02 1.8883757079e+02 1.0000000000e+02 0.0000e+00 0.0000e+00
   -10002  1    1    2    0    0 +5.0839238571e+01 +6.0832410510e+01 +5.9775685315e+02 6.1122701661e+02 1.0000000000e+02 0.0000e+00 0.0000e+00
<mgrwt>
<rscale>  0 0.50225409E+03</rscale>
<asrwt>0</asrwt>
<pdfrwt beam="1">  1        4 0.26637190E+00 0.50225409E+03</pdfrwt>
<pdfrwt beam="2">  1       -4 0.14797167E-01 0.50225409E+03</pdfrwt>
<totfact> 0.40566139E+00</totfact>
</mgrwt>
</event>
<event>
 6      1 +2.6141198e-09 3.28426700e+02 7.81860800e-03 1.07183500e-01
       -4 -1    0    0    0  501 -0.0000000000e+00 +0.0000000000e+00 +1.1037371835e+02 1.1038102465e+02 1.2700000000e+00 0.0000e+00 1.0000e+00
        4 -1    0    0  501    0 +0.0000000000e+00 -0.0000000000e+00 -2.4429855213e+02 2.4430185320e+02 1.2700000000e+00 0.0000e+00 1.0000e+00
      -13  1    1    2    0    0 -2.1197126346e+01 -2.0051213231e+00 -6.7639329977e+01 7.0911415164e+01 1.0566000000e-01 0.0000e+00 1.0000e+00
       13  1    1    2    0    0 +5.8453619545e+01 -2.7323242532e+01 -2.5721942721e+01 6.9462325917e+01 1.0566000000e-01 0.0000e+00 -1.0000e+00
    10002  1    1    2    0    0 -1.5883168979e+01 -6.5569951669e+00 -1.1554813912e+01 1.0212141287e+02 1.0000000000e+02 0.0000e+00 0.0000e+00
   -10002  1    1    2    0    0 -2.1373324221e+01 +3.5885359022e+01 -2.9008747169e+01 1.1218772390e+02 1.0000000000e+02 0.0000e+00 0.0000e+00
<mgrwt>
<rscale>  0 0.32842668E+03</rscale>
<asrwt>0</asrwt>
<pdfrwt beam="1">  1        4 0.61075963E-01 0.32842668E+03</pdfrwt>
<pdfrwt beam="2">  1       -4 0.27594756E-01 0.32842668E+03</pdfrwt>
<totfact> 0.59722928E+01</totfact>
</mgrwt>
</event>
<event>
 6      1 +2.6141198e-09 4.18246700e+02 7.81860800e-03 1.03763800e-01
       -4 -1    0    0    0  501 -0.0000000000e+00 +0.0000000000e+00 +7.6033782515e+01 7.6044388245e+01 1.2700000000e+00 0.0000e+00 -1.0000e+00
        4 -1    0    0  501    0 +0.0000000000e+00 -0.0000000000e+00 -5.7512165295e+02 5.7512305518e+02 1.2700000000e+00 0.0000e+00 -1.0000e+00
      -13  1    1    2    0    0 -6.7583627850e+01 +2.1903891338e+01 -2.3498475744e+02 2.4548966292e+02 1.0566000000e-01 0.0000e+00 -1.0000e+00
       13  1    1    2    0    0 +3.8319766082e+01 -1.2039576181e+01 -1.1293501798e+02 1.1986527987e+02 1.0566000000e-01 0.0000e+00 1.0000e+00
    10002  1    1    2    0    0 +4.3040812957e+01 -1.0914138336e+00 -6.3407379955e+00 1.0905919366e+02 1.0000000000e+02 0.0000e+00 0.0000e+00
   -10002  1    1    2    0    0 -1.3776951190e+01 -8.7729013231e+00 -1.4482735702e+02 1.7675330697e+02 1.0000000000e+02 0.0000e+00 0.0000e+00
<mgrwt>
<rscale>  0 0.41824674E+03</rscale>
<asrwt>0</asrwt>
<pdfrwt beam="1">  1        4 0.14378190E+00 0.41824674E+03</pdfrwt>
<pdfrwt beam="2">  1       -4 0.19009948E-01 0.41824674E+03</pdfrwt>
<totfact> 0.16411034E+01</totfact>
</mgrwt>
</event>
<event>
 6      1 +2.6141198e-09 4.14401000e+02 7.81860800e-03 1.03890400e-01
        4 -1    0    0  501    0 +0.0000000000e+00 +0.0000000000e+00 +5.6180184186e+02 5.6180327732e+02 1.2700000000e+00 0.0000e+00 1.0000e+00
       -4 -1    0    0    0  501 -0.0000000000e+00 -0.0000000000e+00 -7.6411681583e+01 7.6422234869e+01 1.2700000000e+00 0.0000e+00 1.0000e+00
      -13  1    1    2    0    0 +9.3568288253e+01 +5.6975099857e+01 +1.8900111275e+02 2.1845507171e+02 1.0566000000e-01 0.0000e+00 1.0000e+00
       13  1    1    2    0    0 -1.3058518855e+00 -3.1883302800e+01 +4.2903453049e+01 5.3469315445e+01 1.0566000000e-01 0.0000e+00 -1.0000e+00
    10002  1    1    2    0    0 -3.5845767758e+01 +4.2132485294e+01 +1.8295434984e+02 2.1571360529e+02 1.0000000000e+02 0.0000e+00 0.0000e+00
   -10002  1    1    2    0    0 -5.6416668610e+01 -6.7224282350e+01 +7.0531244639e+01 1.5058751975e+02 1.0000000000e+02 0.0000e+00 0.0000e+00
<mgrwt>
<rscale>  0 0.41440101E+03</rscale>
<asrwt>0</asrwt>
<pdfrwt beam="1">  1        4 0.14045196E+00 0.41440101E+03</pdfrwt>
<pdfrwt beam="2">  1       -4 0.19104419E-01 0.41440101E+03</pdfrwt>
<totfact> 0.17271248E+01</totfact>
</mgrwt>
</event>
<event>
 6      1 +2.6141198e-09 5.69979200e+02 7.81860800e-03 9.96972500e-02
       -4 -1    0    0    0  501 -0.0000000000e+00 +0.0000000000e+00 +1.4608343581e+02 1.4608895618e+02 1.2700000000e+00 0.0000e+00 1.0000e+00
        4 -1    0    0  501    0 +0.0000000000e+00 -0.0000000000e+00 -5.5596058304e+02 5.5596203359e+02 1.2700000000e+00 0.0000e+00 1.0000e+00
      -13  1    1    2    0    0 +1.4759717078e+01 -2.8057256954e+00 -2.8674611571e+01 3.2372300778e+01 1.0566000000e-01 0.0000e+00 -1.0000e+00
       13  1    1    2    0    0 +2.1355655120e+01 -1.2662018715e+02 +3.6053588327e+01 1.3337394122e+02 1.0566000000e-01 0.0000e+00 1.0000e+00
    10002  1    1    2    0    0 +6.4853125479e+01 +3.9054356439e+00 -6.3902234226e+01 1.3529477392e+02 1.0000000000e+02 0.0000e+00 0.0000e+00
   -10002  1    1    2    0    0 -1.0096849768e+02 +1.2552047720e+02 -3.5335388976e+02 4.0100997386e+02 1.0000000000e+02 0.0000e+00 0.0000e+00
<mgrwt>
<rscale>  0 0.56997922E+03</rscale>
<asrwt>0</asrwt>
<pdfrwt beam="1">  1        4 0.13899101E+00 0.56997922E+03</pdfrwt>
<pdfrwt beam="2">  1       -4 0.36521732E-01 0.56997922E+03</pdfrwt>
<totfact> 0.52363764E+00</totfact>
</mgrwt>
</event>
<event>
 6      1 +2.6141198e-09 4.24492800e+02 7.81860800e-03 1.03561400e-01
       -4 -1    0    0    0  501 -0.0000000000e+00 +0.0000000000e+00 +1.6899063373e+02 1.6899540582e+02 1.2700000000e+00 0.0000e+00 -1.0000e+00
        4 -1    0    0  501    0 +0.0000000000e+00 -0.0000000000e+00 -2.6656407496e+02 2.6656710029e+02 1.2700000000e+00 0.0000e+00 -1.0000e+00
      -13  1    1    2    0    0 -3.0501759907e+01 -8.6665524704e+00 -4.5804337846e+01 5.5709200485e+01 1.0566000000e-01 0.0000e+00 -1.0000e+00
       13  1    1    2    0    0 +5.7274172971e+01 -3.1265595393e+01 +1.4900745986e+01 6.6932142800e+01 1.0566000000e-01 0.0000e+00 1.0000e+00
    10002  1    1    2    0    0 +3.4287293515e+01 +1.1565370382e+01 -1.3693950549e+02 1.7338340305e+02 1.0000000000e+02 0.0000e+00 0.0000e+00
   -10002  1    1    2    0    0 -6.1059706580e+01 +2.8366777481e+01 +7.0269656118e+01 1.3953775978e+02 1.0000000000e+02 0.0000e+00 0.0000e+00
<mgrwt>
<rscale>  0 0.42449278E+03</rscale>
<asrwt>0</asrwt>
<pdfrwt beam="1">  1        4 0.66641993E-01 0.42449278E+03</pdfrwt>
<pdfrwt beam="2">  1       -4 0.42248633E-01 0.42449278E+03</pdfrwt>
<totfact> 0.21908310E+01</totfact>
</mgrwt>
</event>
<event>
 6      1 +2.6141198e-09 4.43944100e+02 7.81860800e-03 1.02954400e-01
       -4 -1    0    0    0  501 -0.0000000000e+00 +0.0000000000e+00 +2.2853769477e+02 2.2854122349e+02 1.2700000000e+00 0.0000e+00 1.0000e+00
        4 -1    0    0  501    0 +0.0000000000e+00 -0.0000000000e+00 -2.1558795250e+02 2.1559169317e+02 1.2700000000e+00 0.0000e+00 1.0000e+00
      -13  1    1    2    0    0 -2.1040052941e+01 +3.5017618408e+01 -5.7273795804e+00 4.1252048041e+01 1.0566000000e-01 0.0000e+00 1.0000e+00
       13  1    1    2    0    0 +5.3771787143e+01 -3.3186753645e+01 +1.6196527040e+01 6.5231160976e+01 1.0566000000e-01 0.0000e+00 -1.0000e+00
    10002  1    1    2    0    0 +4.0253517737e+01 +1.3815042735e+01 +1.2302172744e+02 1.6415098696e+02 1.0000000000e+02 0.0000e+00 0.0000e+00
   -10002  1    1    2    0    0 -7.2985251939e+01 -1.5645907497e+01 -1.2054113263e+02 1.7349872068e+02 1.0000000000e+02 0.0000e+00 0.0000e+00
<mgrwt>
<rscale>  0 0.44394409E+03</rscale>
<asrwt>0</asrwt>
<pdfrwt beam="1">  1        4 0.53897897E-01 0.44394409E+03</pdfrwt>
<pdfrwt beam="2">  1       -4 0.57135332E-01 0.44394409E+03</pdfrwt>
<totfact> 0.18515815E+01</totfact>
</mgrwt>
</event>
<event>
 6      1 +2.6141198e-09 3.77366700e+02 7.81860800e-03 1.05191100e-01
       -4 -1    0    0    0  501 -0.0000000000e+00 +0.0000000000e+00 +9.2317028429e+02 9.2317115785e+02 1.2700000000e+00 0.0000e+00 1.0000e+00
        4 -1    0    0  501    0 +0.0000000000e+00 -0.0000000000e+00 -3.8552951976e+01 3.8573864288e+01 1.2700000000e+00 0.0000e+00 1.0000e+00
      -13  1    1    2    0    0 +2.7042015893e+01 -2.5066457417e+01 +1.1138425570e+02 1.1732886044e+02 1.0566000000e-01 0.0000e+00 -1.0000e+00
       13  1    1    2    0    0 -4.7287452939e+01 +4.1766331743e+01 +2.0893052831e+02 2.1824872622e+02 1.0566000000e-01 0.0000e+00 1.0000e+00
    10002  1    1    2    0    0 +1.0540130227e+01 +4.8919707371e+01 +4.3758476589e+02 4.5164660904e+02 1.0000000000e+02 0.0000e+00 0.0000e+00
   -10002  1    1    2    0    0 +9.7053068195e+00 -6.5619581698e+01 +1.2671778241e+02 1.7452082644e+02 1.0000000000e+02 0.0000e+00 0.0000e+00
<mgrwt>
<rscale>  0 0.37736675E+03</rscale>
<asrwt>0</asrwt>
<pdfrwt beam="1">  1        4 0.96409609E-02 0.37736675E+03</pdfrwt>
<pdfrwt beam="2">  1       -4 0.23079530E+00 0.37736675E+03</pdfrwt>
<totfact> 0.13980929E+01</totfact>
</mgrwt>
</event>
<event>
 6      1 +2.6141198e-09 5.03814700e+02 7.81860800e-03 1.01278800e-01
       -4 -1    0    0    0  501 -0.0000000000e+00 +0.0000000000e+00 +2.9308833822e+02 2.9309108977e+02 1.2700000000e+00 0.0000e+00 1.0000e+00
        4 -1    0    0  501    0 +0.0000000000e+00 -0.0000000000e+00 -2.1650698107e+02 2.1651070586e+02 1.2700000000e+00 0.0000e+00 1.0000e+00
      -13  1    1    2    0    0 +2.2316031431e+01 +3.6248537847e+01 -1.9746500442e+01 4.6924377445e+01 1.0566000000e-01 0.0000e+00 -1.0000e+00
       13  1    1    2    0    0 -5.1316172771e+01 +1.6646512202e+00 +9.7728075240e+00 5.2265089520e+01 1.0566000000e-01 0.0000e+00 1.0000e+00
    10002  1    1    2    0    0 +1.3093293227e+02 -1.4534380260e+02 +2.3651628434e+01 2.2096980163e+02 1.0000000000e+02 0.0000e+00 0.0000e+00
   -10002  1    1    2    0    0 -1.0193279093e+02 +1.0743061353e+02 +6.2903421639e+01 1.8944252702e+02 1.0000000000e+02 0.0000e+00 0.0000e+00
<mgrwt>
<rscale>  0 0.50381473E+03</rscale>
<asrwt>0</asrwt>
<pdfrwt beam="1">  1        4 0.54127555E-01 0.50381473E+03</pdfrwt>
<pdfrwt beam="2">  1       -4 0.73272894E-01 0.50381473E+03</pdfrwt>
<totfact> 0.10748848E+01</totfact>
</mgrwt>
</event>
<event>
 6      1 +2.6141198e-09 6.11938900e+02 7.81860800e-03 9.88094200e-02
        4 -1    0    0  501    0 +0.0000000000e+00 +0.0000000000e+00 +2.7468342441e+02 2.7468636032e+02 1.2700000000e+00 0.0000e+00 -1.0000e+00
       -4 -1    0    0    0  501 -0.0000000000e+00 -0.0000000000e+00 -3.4081296151e+02 3.4081532776e+02 1.2700000000e+00 0.0000e+00 -1.0000e+00
      -13  1    1    2    0    0 -5.9540918323e+00 +1.6763309105e+01 +1.5543378340e+00 1.7857403838e+01 1.0566000000e-01 0.0000e+00 -1.0000e+00
       13  1    1    2    0    0 +2.4213444516e+01 -1.3033646163e+02 -2.0237715810e+01 1.3410242515e+02 1.0566000000e-01 0.0000e+00 1.0000e+00
    10002  1    1    2    0    0 +3.2370913674e+01 +1.4997757742e+02 -1.9972799345e+02 2.7098417140e+02 1.0000000000e+02 0.0000e+00 0.0000e+00
   -10002  1    1    2    0    0 -5.0630266357e+01 -3.6404424899e+01 +1.5228183432e+02 1.9255768769e+02 1.0000000000e+02 0.0000e+00 0.0000e+00
<mgrwt>
<rscale>  0 0.61193890E+03</rscale>
<asrwt>0</asrwt>
<pdfrwt beam="1">  1        4 0.68671519E-01 0.61193890E+03</pdfrwt>
<pdfrwt beam="2">  1       -4 0.85203903E-01 0.61193890E+03</pdfrwt>
<totfact> 0.45986756E+00</totfact>
</mgrwt>
</event>
<event>
 6      1 +2.6141198e-09 3.24729000e+02 7.81860800e-03 1.07349300e-01
        4 -1    0    0  501    0 +0.0000000000e+00 +0.0000000000e+00 +5.2220451947e+01 5.2235892848e+01 1.2700000000e+00 0.0000e+00 -1.0000e+00
       -4 -1    0    0    0  501 -0.0000000000e+00 -0.0000000000e+00 -5.0473486983e+02 5.0473646760e+02 1.2700000000e+00 0.0000e+00 -1.0000e+00
      -13  1    1    2    0    0 -5.6256152419e+01 +3.1992589686e+01 -7.5483551626e+01 9.9428658896e+01 1.0566000000e-01 0.0000e+00 1.0000e+00
       13  1    1    2    0    0 +3.4444671752e+01 -1.8402346495e+01 -6.4773658061e+01 7.5635439520e+01 1.0566000000e-01 0.0000e+00 -1.0000e+00
    10002  1    1    2    0    0 +9.6430126326e+00 -5.0216499748e+01 -1.4853721782e+02 1.8622027177e+02 1.0000000000e+02 0.0000e+00 0.0000e+00
   -10002  1    1    2    0    0 +1.2168468034e+01 +3.6626256557e+01 -1.6371999038e+02 1.9568799026e+02 1.0000000000e+02 0.0000e+00 0.0000e+00
<mgrwt>
<rscale>  0 0.32472898E+03</rscale>
<asrwt>0</asrwt>
<pdfrwt beam="1">  1        4 0.13057244E-01 0.32472898E+03</pdfrwt>
<pdfrwt beam="2">  1       -4 0.12618583E+00 0.32472898E+03</pdfrwt>
<totfact> 0.43919674E+01</totfact>
</mgrwt>
</event>
<event>
 6      1 +2.6141198e-09 3.95271200e+02 7.81860800e-03 1.04543000e-01
       -4 -1    0    0    0  501 -0.0000000000e+00 +0.0000000000e+00 +1.1134741494e+02 1.1135465735e+02 1.2700000000e+00 0.0000e+00 1.0000e+00
        4 -1    0    0  501    0 +0.0000000000e+00 -0.0000000000e+00 -3.5077261784e+02 3.5077491690e+02 1.2700000000e+00 0.0000e+00 1.0000e+00
      -13  1    1    2    0    0 -4.4217244776e+01 -4.6590335494e+01 -8.3791544084e+01 1.0557868213e+02 1.0566000000e-01 0.0000e+00 1.0000e+00
       13  1    1    2    0    0 +3.0159180454e+01 +2.4969031772e+01 -4.1424426120e+00 3.9372575584e+01 1.0566000000e-01 0.0000e+00 -1.0000e+00
    10002  1    1    2    0    0 +4.2024340335e+01 -6.3198566180e+01 -1.3118048599e+02 1.8157208996e+02 1.0000000000e+02 0.0000e+00 0.0000e+00
   -10002  1    1    2    0    0 -2.7966276013e+01 +8.4819869902e+01 -2.0310730210e+01 1.3560622658e+02 1.0000000000e+02 0.0000e+00 0.0000e+00
<mgrwt>
<rscale>  0 0.39527119E+03</rscale>
<asrwt>0</asrwt>
<pdfrwt beam="1">  1        4 0.87694345E-01 0.39527119E+03</pdfrwt>
<pdfrwt beam="2">  1       -4 0.27838047E-01 0.39527119E+03</pdfrwt>
<totfact> 0.26742667E+01</totfact>
</mgrwt>
</event>
<event>
 6      1 +2.6141198e-09 4.85068600e+02 7.81860800e-03 1.01775100e-01
       -4 -1    0    0    0  501 -0.0000000000e+00 +0.0000000000e+00 +6.8231309635e+01 6.8243127965e+01 1.2700000000e+00 0.0000e+00 1.0000e+00
        4 -1    0    0  501    0 +0.0000000000e+00 -0.0000000000e+00 -8.6202283850e+02 8.6202377403e+02 1.2700000000e+00 0.0000e+00 1.0000e+00
      -13  1    1    2    0    0 +1.4832647779e+02 -2.6480845247e+01 -3.0820323313e+02 3.4306154441e+02 1.0566000000e-01 0.0000e+00 -1.0000e+00
       13  1    1    2    0    0 -1.7416243896e-01 +2.8238370836e+01 -5.8908657658e+01 6.5327460008e+01 1.0566000000e-01 0.0000e+00 1.0000e+00
    10002  1    1    2    0    0 -2.1085353275e+01 -7.1148350631e+01 -1.7962693861e+02 2.1856924988e+02 1.0000000000e+02 0.0000e+00 0.0000e+00
   -10002  1    1    2    0    0 -1.2706696208e+02 +6.9390825042e+01 -2.4705269947e+02 3.0330864770e+02 1.0000000000e+02 0.0000e+00 0.0000e+00
<mgrwt>
<rscale>  0 0.48506857E+03</rscale>
<asrwt>0</asrwt>
<pdfrwt beam="1">  1        4 0.21550727E+00 0.48506857E+03</pdfrwt>
<pdfrwt beam="2">  1       -4 0.17059424E-01 0.48506857E+03</pdfrwt>
<totfact> 0.64250049E+00</totfact>
</mgrwt>
</event>
<event>
 6      1 +2.6141198e-09 4.00069900e+02 7.81860800e-03 1.04375500e-01
        4 -1    0    0  501    0 +0.0000000000e+00 +0.0000000000e+00 +9.0942421965e+02 9.0942510642e+02 1.2700000000e+00 0.0000e+00 -1.0000e+00
       -4 -1    0    0    0  501 -0.0000000000e+00 -0.0000000000e+00 -4.3989182024e+01 4.4007511121e+01 1.2700000000e+00 0.0000e+00 -1.0000e+00
      -13  1    1    2    0    0 +8.2613058560e+00 -4.7522224508e+01 +1.2721653773e+02 1.3605392178e+02 1.0566000000e-01 0.0000e+00 -1.0000e+00
       13  1    1    2    0    0 +1.0541907718e+01 +3.9461791953e+01 +2.7606418057e+01 4.9300003291e+01 1.0566000000e-01 0.0000e+00 1.0000e+00
    10002  1    1    2    0    0 -1.0787381183e+02 +1.4924236355e+01 +4.6897947002e+02 4.9173289030e+02 1.0000000000e+02 0.0000e+00 0.0000e+00
   -10002  1    1    2    0    0 +8.9070598257e+01 -6.8638038004e+00 +2.4163261182e+02 2.7634580216e+02 1.0000000000e+02 0.0000e+00 0.0000e+00
<mgrwt>
<rscale>  0 0.40006993E+03</rscale>
<asrwt>0</asrwt>
<pdfrwt beam="1">  1        4 0.22735845E+00 0.40006993E+03</pdfrwt>
<pdfrwt beam="2">  1       -4 0.10999698E-01 0.40006993E+03</pdfrwt>
<totfact> 0.11721717E+01</totfact>
</mgrwt>
</event>
<event>
 6      1 +2.6141198e-09 3.27337200e+02 7.81860800e-03 1.07232100e-01
       -4 -1    0    0    0  501 -0.0000000000e+00 +0.0000000000e+00 +3.2126585162e+02 3.2126836184e+02 1.2700000000e+00 0.0000e+00 -1.0000e+00
        4 -1    0    0  501    0 +0.0000000000e+00 -0.0000000000e+00 -8.3373174089e+01 8.3382846304e+01 1.2700000000e+00 0.0000e+00 -1.0000e+00
      -13  1    1    2    0    0 -2.2358375950e+01 +1.9633990038e+01 +6.1614040649e+01 6.8422888781e+01 1.0566000000e-01 0.0000e+00 1.0000e+00
       13  1    1    2    0    0 +5.5935590091e+01 -5.0211196597e+00 +6.1919773548e+01 8.3594685248e+01 1.0566000000e-01 0.0000e+00 -1.0000e+00
    10002  1    1    2    0    0 -1.0575723504e+01 -2.6704270247e+01 +1.0669883279e+02 1.4902887269e+02 1.0000000000e+02 0.0000e+00 0.0000e+00
   -10002  1    1    2    0    0 -2.3001490637e+01 +1.2091399869e+01 +7.6600305515e+00 1.0360476143e+02 1.0000000000e+02 0.0000e+00 0.0000e+00
<mgrwt>
<rscale>  0 0.32733725E+03</rscale>
<asrwt>0</asrwt>
<pdfrwt beam="1">  1        4 0.20844817E-01 0.32733725E+03</pdfrwt>
<pdfrwt beam="2">  1       -4 0.80317985E-01 0.32733725E+03</pdfrwt>
<totfact> 0.55247239E+01</totfact>
</mgrwt>
</event>
<event>
 6      1 +2.6141198e-09 3.64911800e+02 7.81860800e-03 1.05665600e-01
        4 -1    0    0  501    0 +0.0000000000e+00 +0.0000000000e+00 +4.5496569862e+02 4.5496747117e+02 1.2700000000e+00 0.0000e+00 1.0000e+00
       -4 -1    0    0    0  501 -0.0000000000e+00 -0.0000000000e+00 -7.3163272682e+01 7.3174294459e+01 1.2700000000e+00 0.0000e+00 1.0000e+00
      -13  1    1    2    0    0 +4.4352522072e+01 -1.4725725061e+01 +9.6263307486e-01 4.6743245707e+01 1.0566000000e-01 0.0000e+00 -1.0000e+00
       13  1    1    2    0    0 -4.3365449272e+01 +8.0440721590e+00 +2.6485864989e+01 5.1446880331e+01 1.0566000000e-01 0.0000e+00 1.0000e+00
    10002  1    1    2    0    0 -1.3201778460e+01 -5.9465918300e+01 +2.2173106875e+02 2.5074917596e+02 1.0000000000e+02 0.0000e+00 0.0000e+00
   -10002  1    1    2    0    0 +1.2214705660e+01 +6.6147571202e+01 +1.3262285913e+02 1.7920246364e+02 1.0000000000e+02 0.0000e+00 0.0000e+00
<mgrwt>
<rscale>  0 0.36491181E+03</rscale>
<asrwt>0</asrwt>
<pdfrwt beam="1">  1        4 0.11374302E+00 0.36491181E+03</pdfrwt>
<pdfrwt beam="2">  1       -4 0.18292418E-01 0.36491181E+03</pdfrwt>
<totfact> 0.31381093E+01</totfact>
</mgrwt>
</event>
<event>
 6      1 +2.6141198e-09 4.25895600e+02 7.81860800e-03 1.03516400e-01
        4 -1    0    0  501    0 +0.0000000000e+00 +0.0000000000e+00 +2.6313045641e+02 2.6313352122e+02 1.2700000000e+00 0.0000e+00 1.0000e+00
       -4 -1    0    0    0  501 -0.0000000000e+00 -0.0000000000e+00 -1.7232926008e+02 1.7233393972e+02 1.2700000000e+00 0.0000e+00 1.0000e+00
      -13  1    1    2    0    0 +7.5893159735e+01 +3.7271176790e+01 +5.1714377243e+01 9.9112563742e+01 1.0566000000e-01 0.0000e+00 1.0000e+00
       13  1    1    2    0    0 -1.1314921386e-01 -3.6654722384e+01 +5.4430531258e+01 6.5622217068e+01 1.0566000000e-01 0.0000e+00 -1.0000e+00
    10002  1    1    2    0    0 -2.2972244580e+01 -6.8507458952e+01 -5.1921758259e+01 1.3385389398e+02 1.0000000000e+02 0.0000e+00 0.0000e+00
   -10002  1    1    2    0    0 -5.2807765941e+01 +6.7891004547e+01 +3.6578046088e+01 1.3687878615e+02 1.0000000000e+02 0.0000e+00 0.0000e+00
<mgrwt>
<rscale>  0 0.42589559E+03</rscale>
<asrwt>0</asrwt>
<pdfrwt beam="1">  1        4 0.65783582E-01 0.42589559E+03</pdfrwt>
<pdfrwt beam="2">  1       -4 0.43083283E-01 0.42589559E+03</pdfrwt>
<totfact> 0.21664905E+01</totfact>
</mgrwt>
</event>
<event>
 6      1 +2.6141198e-09 5.94511700e+02 7.81860800e-03 9.91685800e-02
        4 -1    0    0  501    0 +0.0000000000e+00 +0.0000000000e+00 +5.0418872743e+02 5.0419032693e+02 1.2700000000e+00 0.0000e+00 1.0000e+00
       -4 -1    0    0    0  501 -0.0000000000e+00 -0.0000000000e+00 -1.7524972567e+02 1.7525432733e+02 1.2700000000e+00 0.0000e+00 1.0000e+00
      -13  1    1    2    0    0 -3.7436386029e+01 +4.0368995829e+01 +1.6945285424e+01 5.7604623819e+01 1.0566000000e-01 0.0000e+00 -1.0000e+00
       13  1    1    2    0    0 +4.5953986365e+01 +5.9026949689e+00 +4.4523666966e+01 6.4257129992e+01 1.0566000000e-01 0.0000e+00 1.0000e+00
    10002  1    1    2    0    0 -2.8438603847e+01 -2.4345613597e+02 +1.1715267463e+02 2.8948988498e+02 1.0000000000e+02 0.0000e+00 0.0000e+00
   -10002  1    1    2    0    0 +1.9921003511e+01 +1.9718444517e+02 +1.5031737474e+02 2.6809301548e+02 1.0000000000e+02 0.0000e+00 0.0000e+00
<mgrwt>
<rscale>  0 0.59451171E+03</rscale>
<asrwt>0</asrwt>
<pdfrwt beam="1">  1        4 0.12604796E+00 0.59451171E+03</pdfrwt>
<pdfrwt beam="2">  1       -4 0.43813207E-01 0.59451171E+03</pdfrwt>
<totfact> 0.46570996E+00</totfact>
</mgrwt>
</event>
<event>
 6      1 +2.6141198e-09 4.05886100e+02 7.81860800e-03 1.04176000e-01
       -4 -1    0    0    0  501 -0.0000000000e+00 +0.0000000000e+00 +5.1245260468e+02 5.1245417839e+02 1.2700000000e+00 0.0000e+00 1.0000e+00
        4 -1    0    0  501    0 +0.0000000000e+00 -0.0000000000e+00 -8.0363415218e+01 8.0373449631e+01 1.2700000000e+00 0.0000e+00 1.0000e+00
      -13  1    1    2    0    0 -2.1867952624e+00 -2.4386164311e+01 +1.0686901738e+01 2.6714941814e+01 1.0566000000e-01 0.0000e+00 1.0000e+00
       13  1    1    2    0    0 -3.3468253229e+01 +5.9877336216e+01 +1.6703484603e+02 1.8057151027e+02 1.0566000000e-01 0.0000e+00 -1.0000e+00
    10002  1    1    2    0    0 +9.2065370858e+01 -7.5453223385e+01 +1.9744848959e+02 2.5130683929e+02 1.0000000000e+02 0.0000e+00 0.0000e+00
   -10002  1    1    2    0    0 -5.6410322366e+01 +3.9962051480e+01 +5.6918952104e+01 1.3423433665e+02 1.0000000000e+02 0.0000e+00 0.0000e+00
<mgrwt>
<rscale>  0 0.40588610E+03</rscale>
<asrwt>0</asrwt>
<pdfrwt beam="1">  1        4 0.20092305E-01 0.40588610E+03</pdfrwt>
<pdfrwt beam="2">  1       -4 0.12811460E+00 0.40588610E+03</pdfrwt>
<totfact> 0.19863306E+01</totfact>
</mgrwt>
</event>
<event>
 6      1 +2.6141198e-09 4.03534000e+02 7.81860800e-03 1.04256300e-01
       -4 -1    0    0    0  501 -0.0000000000e+00 +0.0000000000e+00 +5.0206325177e+01 5.0222385325e+01 1.2700000000e+00 0.0000e+00 1.0000e+00
        4 -1    0    0  501    0 +0.0000000000e+00 -0.0000000000e+00 -8.1070607820e+02 8.1070707295e+02 1.2700000000e+00 0.0000e+00 1.0000e+00
      -13  1    1    2    0    0 +3.8966645412e+01 -4.2152027973e+00 -1.3728644995e+01 4.1528956725e+01 1.0566000000e-01 0.0000e+00 -1.0000e+00
       13  1    1    2    0    0 +2.5644481972e+01 -5.3361193384e+01 -2.1712087611e+02 2.2504786695e+02 1.0566000000e-01 0.0000e+00 1.0000e+00
    10002  1    1    2    0    0 -2.5942555303e+01 -2.8389334391e+01 -1.1341894794e+02 1.5602188383e+02 1.0000000000e+02 0.0000e+00 0.0000e+00
   -10002  1    1    2    0    0 -3.8668572082e+01 +8.5965730573e+01 -4.1623128398e+02 4.3833075076e+02 1.0000000000e+02 0.0000e+00 0.0000e+00
<mgrwt>
<rscale>  0 0.40353396E+03</rscale>
<asrwt>0</asrwt>
<pdfrwt beam="1">  1        4 0.20267861E+00 0.40353396E+03</pdfrwt>
<pdfrwt beam="2">  1       -4 0.12553716E-01 0.40353396E+03</pdfrwt>
<totfact> 0.13293711E+01</totfact>
</mgrwt>
</event>
<event>
 6      1 +2.6141198e-09 4.63702800e+02 7.81860800e-03 1.02371300e-01
        4 -1    0    0  501    0 +0.0000000000e+00 +0.0000000000e+00 +8.8848004644e+01 8.8857080917e+01 1.2700000000e+00 0.0000e+00 1.0000e+00
       -4 -1    0    0    0  501 -0.0000000000e+00 -0.0000000000e+00 -6.0498220446e+02 6.0498353747e+02 1.2700000000e+00 0.0000e+00 1.0000e+00
      -13  1    1    2    0    0 -6.7600026132e+01 +2.7555285746e+01 -1.4399988095e+02 1.6144669146e+02 1.0566000000e-01 0.0000e+00 1.0000e+00
       13  1    1    2    0    0 +1.2575960488e+01 +8.0934643900e+01 -1.2078607211e+02 1.4593785576e+02 1.0566000000e-01 0.0000e+00 -1.0000e+00
    10002  1    1    2    0    0 +2.0572820576e+00 -6.0487191825e+01 -1.2145339839e+01 1.1751783722e+02 1.0000000000e+02 0.0000e+00 0.0000e+00
   -10002  1    1    2    0    0 +5.2966783587e+01 -4.8002737822e+01 -2.3920290692e+02 2.6893823395e+02 1.0000000000e+02 0.0000e+00 0.0000e+00
<mgrwt>
<rscale>  0 0.46370281E+03</rscale>
<asrwt>0</asrwt>
<pdfrwt beam="1">  1        4 0.22213304E-01 0.46370281E+03</pdfrwt>
<pdfrwt beam="2">  1       -4 0.15124684E+00 0.46370281E+03</pdfrwt>
<totfact> 0.10843204E+01</totfact>
</mgrwt>
</event>
<event>
 6      1 +2.6141198e-09 4.32767700e+02 7.81860800e-03 1.03298900e-01
       -4 -1    0    0    0  501 -0.0000000000e+00 +0.0000000000e+00 +1.6915730350e+02 1.6916207089e+02 1.2700000000e+00 0.0000e+00 1.0000e+00
        4 -1    0    0  501    0 +0.0000000000e+00 -0.0000000000e+00 -2.7678527727e+02 2.7678819088e+02 1.2700000000e+00 0.0000e+00 1.0000e+00
      -13  1    1    2    0    0 -6.4342269478e+01 +2.8835634867e+01 -8.4776817345e+01 1.1026577621e+02 1.0566000000e-01 0.0000e+00 1.0000e+00
       13  1    1    2    0    0 +3.4727411905e+01 -2.0275651487e+01 -5.4725914965e+01 6.7911943821e+01 1.0566000000e-01 0.0000e+00 -1.0000e+00
    10002  1    1    2    0    0 -2.5294402355e+01 -2.9036528840e+01 -5.7313999667e+01 1.2152292523e+02 1.0000000000e+02 0.0000e+00 0.0000e+00
   -10002  1    1    2    0    0 +5.4909259928e+01 +2.0476545460e+01 +8.9188758206e+01 1.4624961651e+02 1.0000000000e+02 0.0000e+00 0.0000e+00
<mgrwt>
<rscale>  0 0.43276767E+03</rscale>
<asrwt>0</asrwt>
<pdfrwt beam="1">  1        4 0.69197279E-01 0.43276767E+03</pdfrwt>
<pdfrwt beam="2">  1       -4 0.42290286E-01 0.43276767E+03</pdfrwt>
<totfact> 0.20157601E+01</totfact>
</mgrwt>
</event>
<event>
 6      1 +2.6141198e-09 4.37000600e+02 7.81860800e-03 1.03167100e-01
        4 -1    0    0  501    0 +0.0000000000e+00 +0.0000000000e+00 +2.5455495093e+02 2.5455811899e+02 1.2700000000e+00 0.0000e+00 1.0000e+00
       -4 -1    0    0    0  501 -0.0000000000e+00 -0.0000000000e+00 -1.8754583405e+02 1.8755013402e+02 1.2700000000e+00 0.0000e+00 1.0000e+00
      -13  1    1    2    0    0 +4.5723028717e+01 -7.1766023850e+00 -6.0840717278e+00 4.6681110416e+01 1.0566000000e-01 0.0000e+00 1.0000e+00
       13  1    1    2    0    0 -3.9988329599e+01 -1.7984129546e+01 +3.8219973958e+01 5.8165909200e+01 1.0566000000e-01 0.0000e+00 -1.0000e+00
    10002  1    1    2    0    0 +1.0858881986e+02 -5.4879100047e+01 -1.5726188396e+01 1.5827368834e+02 1.0000000000e+02 0.0000e+00 0.0000e+00
   -10002  1    1    2    0    0 -1.1432351897e+02 +8.0039831978e+01 +5.0599403040e+01 1.7898754505e+02 1.0000000000e+02 0.0000e+00 0.0000e+00
<mgrwt>
<rscale>  0 0.43700056E+03</rscale>
<asrwt>0</asrwt>
<pdfrwt beam="1">  1        4 0.63639671E-01 0.43700056E+03</pdfrwt>
<pdfrwt beam="2">  1       -4 0.46887392E-01 0.43700056E+03</pdfrwt>
<totfact> 0.19615064E+01</totfact>
</mgrwt>
</event>
<event>
 6      1 +2.6141198e-09 5.74791200e+02 7.81860800e-03 9.95913200e-02
        4 -1    0    0  501    0 +0.0000000000e+00 +0.0000000000e+00 +4.6209039819e+02 4.6209214341e+02 1.2700000000e+00 0.0000e+00 -1.0000e+00
       -4 -1    0    0    0  501 -0.0000000000e+00 -0.0000000000e+00 -1.7874042927e+02 1.7874494107e+02 1.2700000000e+00 0.0000e+00 -1.0000e+00
      -13  1    1    2    0    0 +7.2201129354e+01 -4.8744134625e+01 +7.1521591228e+01 1.1271354362e+02 1.0566000000e-01 0.0000e+00 1.0000e+00
       13  1    1    2    0    0 +1.6542549084e+01 -1.5827143649e+01 +1.0479180768e+02 1.0726364029e+02 1.0566000000e-01 0.0000e+00 -1.0000e+00
    10002  1    1    2    0    0 -1.8637415141e+02 -5.3453751585e+01 +9.3764111322e+01 2.3745386172e+02 1.0000000000e+02 0.0000e+00 0.0000e+00
   -10002  1    1    2    0    0 +9.7630472972e+01 +1.1802502986e+02 +1.3272458681e+01 1.8340603885e+02 1.0000000000e+02 0.0000e+00 0.0000e+00
<mgrwt>
<rscale>  0 0.57479124E+03</rscale>
<asrwt>0</asrwt>
<pdfrwt beam="1">  1        4 0.11552338E+00 0.57479124E+03</pdfrwt>
<pdfrwt beam="2">  1       -4 0.44685890E-01 0.57479124E+03</pdfrwt>
<totfact> 0.55516140E+00</totfact>
</mgrwt>
</event>
<event>
 6      1 +2.6141198e-09 6.55961500e+02 7.81860800e-03 9.79565700e-02
       -4 -1    0    0    0  501 -0.0000000000e+00 +0.0000000000e+00 +2.4835516161e+02 2.4835840876e+02 1.2700000000e+00 0.0000e+00 -1.0000e+00
        4 -1    0    0  501    0 +0.0000000000e+00 -0.0000000000e+00 -4.3312829240e+02 4.3313015431e+02 1.2700000000e+00 0.0000e+00 -1.0000e+00
      -13  1    1    2    0    0 +7.8259131813e+01 -7.0219474700e+01 -7.6443094229e+01 1.2999547745e+02 1.0566000000e-01 0.0000e+00 -1.0000e+00
       13  1    1    2    0    0 -1.7939853444e+01 +1.1350446319e+01 -1.1813279597e+01 2.4294767175e+01 1.0566000000e-01 0.0000e+00 1.0000e+00
    10002  1    1    2    0    0 -1.4361760910e+01 -1.4917829272e+02 +1.1251314396e+02 2.1241381961e+02 1.0000000000e+02 0.0000e+00 0.0000e+00
   -10002  1    1    2    0    0 -4.5957517459e+01 +2.0804732110e+02 -2.0902990092e+02 3.1478449884e+02 1.0000000000e+02 0.0000e+00 0.0000e+00
<mgrwt>
<rscale>  0 0.65596155E+03</rscale>
<asrwt>0</asrwt>
<pdfrwt beam="1">  1        4 0.10828271E+00 0.65596155E+03</pdfrwt>
<pdfrwt beam="2">  1       -4 0.62089430E-01 0.65596155E+03</pdfrwt>
<totfact> 0.32568971E+00</totfact>
</mgrwt>
</event>
<event>
 6      1 +2.6141198e-09 1.17293300e+03 7.81860800e-03 9.13688400e-02
       -4 -1    0    0    0  501 -0.0000000000e+00 +0.0000000000e+00 +3.8133656465e+02 3.8133867944e+02 1.2700000000e+00 0.0000e+00 1.0000e+00
        4 -1    0    0  501    0 +0.0000000000e+00 -0.0000000000e+00 -9.0193572664e+02 9.0193662077e+02 1.2700000000e+00 0.0000e+00 1.0000e+00
      -13  1    1    2    0    0 +2.9286122059e+01 +4.4485943981e+01 -4.3963970925e+01 6.9061697493e+01 1.0566000000e-01 0.0000e+00 -1.0000e+00
       13  1    1    2    0    0 +1.7590604213e+01 -3.6242021585e+01 -5.7122777125e+01 6.9899472928e+01 1.0566000000e-01 0.0000e+00 1.0000e+00
    10002  1    1    2    0    0 -4.3277666488e+02 +1.0035653877e+02 +1.1408770673e+02 4.6944976447e+02 1.0000000000e+02 0.0000e+00 0.0000e+00
   -10002  1    1    2    0    0 +3.8589993861e+02 -1.0860046116e+02 -5.3360012068e+02 6.7486436531e+02 1.0000000000e+02 0.0000e+00 0.0000e+00
<mgrwt>
<rscale>  0 0.11729331E+04</rscale>
<asrwt>0</asrwt>
<pdfrwt beam="1">  1        4 0.22548430E+00 0.11729331E+04</pdfrwt>
<pdfrwt beam="2">  1       -4 0.95334519E-01 0.11729331E+04</pdfrwt>
<totfact> 0.16014756E-01</totfact>
</mgrwt>
</event>
<event>
 6      1 +2.6141198e-09 4.66662000e+02 7.81860800e-03 1.02286700e-01
       -4 -1    0    0    0  501 -0.0000000000e+00 +0.0000000000e+00 +4.1958832741e+02 4.1959024941e+02 1.2700000000e+00 0.0000e+00 1.0000e+00
        4 -1    0    0  501    0 +0.0000000000e+00 -0.0000000000e+00 -1.2974886998e+02 1.2975508530e+02 1.2700000000e+00 0.0000e+00 1.0000e+00
      -13  1    1    2    0    0 -3.2552524061e+00 -1.7237554248e+01 +8.3366050823e+00 1.9422669564e+01 1.0566000000e-01 0.0000e+00 -1.0000e+00
       13  1    1    2    0    0 +2.4708022646e+01 +1.4486559240e+02 +9.1951935805e+01 1.7335424975e+02 1.0566000000e-01 0.0000e+00 1.0000e+00
    10002  1    1    2    0    0 +1.8534199293e+01 -1.5984683675e+02 +1.1370416002e+02 2.2095964285e+02 1.0000000000e+02 0.0000e+00 0.0000e+00
   -10002  1    1    2    0    0 -3.9986969533e+01 +3.2218798598e+01 +7.5846756523e+01 1.3560877254e+02 1.0000000000e+02 0.0000e+00 0.0000e+00
<mgrwt>
<rscale>  0 0.46666196E+03</rscale>
<asrwt>0</asrwt>
<pdfrwt beam="1">  1        4 0.32438235E-01 0.46666196E+03</pdfrwt>
<pdfrwt beam="2">  1       -4 0.10489810E+00 0.46666196E+03</pdfrwt>
<totfact> 0.13206837E+01</totfact>
</mgrwt>
</event>
<event>
 6      1 +2.6141198e-09 4.14662400e+02 7.81860800e-03 1.03881800e-01
       -4 -1    0    0    0  501 -0.0000000000e+00 +0.0000000000e+00 +1.5820121849e+02 1.5820631603e+02 1.2700000000e+00 0.0000e+00 1.0000e+00
        4 -1    0    0  501    0 +0.0000000000e+00 -0.0000000000e+00 -2.7170773354e+02 2.7171070160e+02 1.2700000000e+00 0.0000e+00 1.0000e+00
      -13  1    1    2    0    0 -5.4520445098e+01 +2.8794889259e+01 -1.2978221223e+01 6.3008491263e+01 1.0566000000e-01 0.0000e+00 -1.0000e+00
       13  1    1    2    0    0 +1.2749993833e+01 -4.3861248849e+01 -2.4550866539e+01 5.1856799990e+01 1.0566000000e-01 0.0000e+00 1.0000e+00
    10002  1    1    2    0    0 -7.1753014962e+00 -2.8046261625e+01 +7.0761511945e+01 1.2587799377e+02 1.0000000000e+02 0.0000e+00 0.0000e+00
   -10002  1    1    2    0    0 +4.8945752761e+01 +4.3112621215e+01 -1.4673893923e+02 1.8917373260e+02 1.0000000000e+02 0.0000e+00 0.0000e+00
<mgrwt>
<rscale>  0 0.41466241E+03</rscale>
<asrwt>0</asrwt>
<pdfrwt beam="1">  1        4 0.67927941E-01 0.41466241E+03</pdfrwt>
<pdfrwt beam="2">  1       -4 0.39551313E-01 0.41466241E+03</pdfrwt>
<totfact> 0.23961247E+01</totfact>
</mgrwt>
</event>
<event>
 6      1 +2.6141198e-09 4.10520000e+02 7.81860800e-03 1.04019700e-01
       -4 -1    0    0    0  501 -0.0000000000e+00 +0.0000000000e+00 +1.8101334820e+02 1.8101780334e+02 1.2700000000e+00 0.0000e+00 -1.0000e+00
        4 -1    0    0  501    0 +0.0000000000e+00 -0.0000000000e+00 -2.3274541342e+02 2.3274887834e+02 1.2700000000e+00 0.0000e+00 -1.0000e+00
      -13  1    1    2    0    0 +1.6508667104e+01 -1.8265536215e+01 -1.2328816083e+02 1.2572250263e+02 1.0566000000e-01 0.0000e+00 1.0000e+00
       13  1    1    2    0    0 +1.4581543874e+01 +2.5977957870e+01 +8.8114711633e+00 3.1066523864e+01 1.0566000000e-01 0.0000e+00 -1.0000e+00
    10002  1    1    2    0    0 +6.1693715837e+00 +1.5084411136e+01 -3.8241760141e+01 1.0829604251e+02 1.0000000000e+02 0.0000e+00 0.0000e+00
   -10002  1    1    2    0    0 -3.7259582562e+01 -2.2796832791e+01 +1.0098638458e+02 1.4868161268e+02 1.0000000000e+02 0.0000e+00 0.0000e+00
<mgrwt>
<rscale>  0 0.41051999E+03</rscale>
<asrwt>0</asrwt>
<pdfrwt beam="1">  1        4 0.58187343E-01 0.41051999E+03</pdfrwt>
<pdfrwt beam="2">  1       -4 0.45254327E-01 0.41051999E+03</pdfrwt>
<totfact> 0.25472224E+01</totfact>
</mgrwt>
</event>
<event>
 6      1 +2.6141198e-09 4.95281600e+02 7.81860800e-03 1.01501800e-01
       -4 -1    0    0    0  501 -0.0000000000e+00 +0.0000000000e+00 +2.8707888898e+02 2.8708169813e+02 1.2700000000e+00 0.0000e+00 -1.0000e+00
        4 -1    0    0  501    0 +0.0000000000e+00 -0.0000000000e+00 -2.1361486543e+02 2.1361864065e+02 1.2700000000e+00 0.0000e+00 -1.0000e+00
      -13  1    1    2    0    0 -1.3938324122e+00 -3.9622626950e+01 -3.7356753868e+00 3.9822879979e+01 1.0566000000e-01 0.0000e+00 -1.0000e+00
       13  1    1    2    0    0 +1.0352621461e+01 +1.6748216817e+01 +2.7948164323e+01 3.4187579481e+01 1.0566000000e-01 0.0000e+00 1.0000e+00
    10002  1    1    2    0    0 -1.5505527233e+02 +1.2017663239e+02 +7.0237219027e+00 2.2030409238e+02 1.0000000000e+02 0.0000e+00 0.0000e+00
   -10002  1    1    2    0    0 +1.4609648328e+02 -9.7302222257e+01 +4.2227812714e+01 2.0638578694e+02 1.0000000000e+02 0.0000e+00 0.0000e+00
<mgrwt>
<rscale>  0 0.49528160E+03</rscale>
<asrwt>0</asrwt>
<pdfrwt beam="1">  1        4 0.53404540E-01 0.49528160E+03</pdfrwt>
<pdfrwt beam="2">  1       -4 0.71770545E-01 0.49528160E+03</pdfrwt>
<totfact> 0.11570990E+01</totfact>
</mgrwt>
</event>
<event>
 6      1 +2.6141198e-09 4.20431700e+02 7.81860800e-03 1.03692600e-01
        4 -1    0    0  501    0 +0.0000000000e+00 +0.0000000000e+00 +1.9530161260e+02 1.9530574181e+02 1.2700000000e+00 0.0000e+00 -1.0000e+00
       -4 -1    0    0    0  501 -0.0000000000e+00 -0.0000000000e+00 -2.2626073055e+02 2.2626429478e+02 1.2700000000e+00 0.0000e+00 -1.0000e+00
      -13  1    1    2    0    0 -5.6547312032e+01 -7.5547809629e+01 +5.9633668032e+01 1.1162999402e+02 1.0566000000e-01 0.0000e+00 -1.0000e+00
       13  1    1    2    0    0 +1.7615524611e+01 +2.6499009372e+01 +1.6012375432e+01 3.5621784571e+01 1.0566000000e-01 0.0000e+00 1.0000e+00
    10002  1    1    2    0    0 -4.8171821426e+01 +3.0211346293e+01 -7.2919212702e+01 1.3620007858e+02 1.0000000000e+02 0.0000e+00 0.0000e+00
   -10002  1    1    2    0    0 +8.7103608847e+01 +1.8837453964e+01 -3.3685948713e+01 1.3811817942e+02 1.0000000000e+02 0.0000e+00 0.0000e+00
<mgrwt>
<rscale>  0 0.42043172E+03</rscale>
<asrwt>0</asrwt>
<pdfrwt beam="1">  1        4 0.48826365E-01 0.42043172E+03</pdfrwt>
<pdfrwt beam="2">  1       -4 0.56566144E-01 0.42043172E+03</pdfrwt>
<totfact> 0.23170926E+01</totfact>
</mgrwt>
</event>
<event>
 6      1 +2.6141198e-09 6.00051100e+02 7.81860800e-03 9.90530000e-02
       -4 -1    0    0    0  501 -0.0000000000e+00 +0.0000000000e+00 +2.8693668578e+02 2.8693949632e+02 1.2700000000e+00 0.0000e+00 -1.0000e+00
        4 -1    0    0  501    0 +0.0000000000e+00 -0.0000000000e+00 -3.1370588185e+02 3.1370845256e+02 1.2700000000e+00 0.0000e+00 -1.0000e+00
      -13  1    1    2    0    0 +1.6420450656e+01 -4.9832801596e+00 +5.5766927984e+00 1.8043695505e+01 1.0566000000e-01 0.0000e+00 1.0000e+00
       13  1    1    2    0    0 -4.6481675029e+00 -2.0868327393e+01 -8.4018752377e+00 2.2971617724e+01 1.0566000000e-01 0.0000e+00 -1.0000e+00
    10002  1    1    2    0    0 -2.5966338442e+01 -2.0983907799e+02 +1.2282105701e+02 2.6418119053e+02 1.0000000000e+02 0.0000e+00 0.0000e+00
   -10002  1    1    2    0    0 +1.4194055289e+01 +2.3569068555e+02 -1.4676507064e+02 2.9545144511e+02 1.0000000000e+02 0.0000e+00 0.0000e+00
<mgrwt>
<rscale>  0 0.60005114E+03</rscale>
<asrwt>0</asrwt>
<pdfrwt beam="1">  1        4 0.78427143E-01 0.60005114E+03</pdfrwt>
<pdfrwt beam="2">  1       -4 0.71734844E-01 0.60005114E+03</pdfrwt>
<totfact> 0.50417623E+00</totfact>
</mgrwt>
</event>
<event>
 6      1 +2.6141198e-09 4.60060200e+02 7.81860800e-03 1.02476400e-01
        4 -1    0    0  501    0 +0.0000000000e+00 +0.0000000000e+00 +6.0817349918e+02 6.0817482519e+02 1.2700000000e+00 0.0000e+00 -1.0000e+00
       -4 -1    0    0    0  501 -0.0000000000e+00 -0.0000000000e+00 -8.6998484826e+01 8.7007754034e+01 1.2700000000e+00 0.0000e+00 -1.0000e+00
      -13  1    1    2    0    0 -2.5383261862e+01 -1.4137085308e+01 -1.4647043339e+00 2.9091642899e+01 1.0566000000e-01 0.0000e+00 -1.0000e+00
       13  1    1    2    0    0 +3.6034587282e+00 +7.5259407448e+01 +1.2082538866e+02 1.4239293885e+02 1.0566000000e-01 0.0000e+00 1.0000e+00
    10002  1    1    2    0    0 -7.9045513500e+01 +3.9757577714e+01 +2.8278225002e+02 3.1272137617e+02 1.0000000000e+02 0.0000e+00 0.0000e+00
   -10002  1    1    2    0    0 +1.0082531663e+02 -1.0087989985e+02 +1.1903208000e+02 2.1097662131e+02 1.0000000000e+02 0.0000e+00 0.0000e+00
<mgrwt>
<rscale>  0 0.46006024E+03</rscale>
<asrwt>0</asrwt>
<pdfrwt beam="1">  1        4 0.15204470E+00 0.46006024E+03</pdfrwt>
<pdfrwt beam="2">  1       -4 0.21750946E-01 0.46006024E+03</pdfrwt>
<totfact> 0.11115939E+01</totfact>
</mgrwt>
</event>
<event>
 6      1 +2.6141198e-09 4.90688600e+02 7.81860800e-03 1.01623800e-01
        4 -1    0    0  501    0 +0.0000000000e+00 +0.0000000000e+00 +7.3156635649e+01 7.3167658426e+01 1.2700000000e+00 0.0000e+00 1.0000e+00
       -4 -1    0    0    0  501 -0.0000000000e+00 -0.0000000000e+00 -8.2273387926e+02 8.2273485946e+02 1.2700000000e+00 0.0000e+00 1.0000e+00
      -13  1    1    2    0    0 -3.6161464007e+01 -4.7671352778e+01 -2.7730681297e+02 2.8368871856e+02 1.0566000000e-01 0.0000e+00 -1.0000e+00
       13  1    1    2    0    0 -6.0307881812e-01 -2.3451711204e+01 -6.9645035968e+00 2.4471655784e+01 1.0566000000e-01 0.0000e+00 1.0000e+00
    10002  1    1    2    0    0 +4.9739842658e+00 +1.8089199318e+02 -2.8291388175e+02 3.5040964342e+02 1.0000000000e+02 0.0000e+00 0.0000e+00
   -10002  1    1    2    0    0 +3.1790558559e+01 -1.0976892920e+02 -1.8239204530e+02 2.3733250013e+02 1.0000000000e+02 0.0000e+00 0.0000e+00
<mgrwt>
<rscale>  0 0.49068857E+03</rscale>
<asrwt>0</asrwt>
<pdfrwt beam="1">  1        4 0.18290662E-01 0.49068857E+03</pdfrwt>
<pdfrwt beam="2">  1       -4 0.20568494E+00 0.49068857E+03</pdfrwt>
<totfact> 0.65363522E+00</totfact>
</mgrwt>
</event>
<event>
 6      1 +2.6141198e-09 5.43021900e+02 7.81860800e-03 1.00312200e-01
        4 -1    0    0  501    0 +0.0000000000e+00 +0.0000000000e+00 +8.2244828511e+01 8.2254633406e+01 1.2700000000e+00 0.0000e+00 -1.0000e+00
       -4 -1    0    0    0  501 -0.0000000000e+00 -0.0000000000e+00 -8.9626254166e+02 8.9626344145e+02 1.2700000000e+00 0.0000e+00 -1.0000e+00
      -13  1    1    2    0    0 -4.9139312190e+01 +2.5449480794e+00 -6.1857159071e+01 7.9040926459e+01 1.0566000000e-01 0.0000e+00 1.0000e+00
       13  1    1    2    0    0 +1.9779484645e+01 +6.5699022579e+01 -1.5889026925e+00 6.8630353026e+01 1.0566000000e-01 0.0000e+00 -1.0000e+00
    10002  1    1    2    0    0 +1.3528339707e+02 +3.2154776659e+01 -4.5757166904e+02 4.8857687163e+02 1.0000000000e+02 0.0000e+00 0.0000e+00
   -10002  1    1    2    0    0 -1.0592356952e+02 -1.0039874732e+02 -2.9299998235e+02 3.4226992375e+02 1.0000000000e+02 0.0000e+00 0.0000e+00
<mgrwt>
<rscale>  0 0.54302190E+03</rscale>
<asrwt>0</asrwt>
<pdfrwt beam="1">  1        4 0.20562548E-01 0.54302190E+03</pdfrwt>
<pdfrwt beam="2">  1       -4 0.22406694E+00 0.54302190E+03</pdfrwt>
<totfact> 0.40434099E+00</totfact>
</mgrwt>
</event>
<event>
 6      1 +2.6141198e-09 6.86021500e+02 7.81860800e-03 9.74144100e-02
       -3 -1    0    0    0  501 -0.0000000000e+00 +0.0000000000e+00 +1.4717190881e+03 1.4717190916e+03 1.0100000000e-01 0.0000e+00 -1.0000e+00
        3 -1    0    0  501    0 +0.0000000000e+00 -0.0000000000e+00 -7.9944817017e+01 7.9944880817e+01 1.0100000000e-01 0.0000e+00 -1.0000e+00
      -13  1    1    2    0    0 +9.3421032023e+01 -4.0318052620e+01 +6.0200018505e+02 6.1053850703e+02 1.0566000000e-01 0.0000e+00 -1.0000e+00
       13  1    1    2    0    0 -1.1404481568e+01 -1.1670820910e+01 +2.1294016792e+01 2.6827533911e+01 1.0566000000e-01 0.0000e+00 1.0000e+00
    10002  1    1    2    0    0 +1.8622710657e+01 -1.7944399394e+02 +2.1564759452e+02 2.9841386921e+02 1.0000000000e+02 0.0000e+00 0.0000e+00
   -10002  1    1    2    0    0 -1.0063926111e+02 +2.3143286747e+02 +5.5283247471e+02 6.1588406224e+02 1.0000000000e+02 0.0000e+00 0.0000e+00
<mgrwt>
<rscale>  0 0.68602147E+03</rscale>
<asrwt>0</asrwt>
<pdfrwt beam="1">  1        3 0.19986212E-01 0.68602147E+03</pdfrwt>
<pdfrwt beam="2">  1       -3 0.36792979E+00 0.68602147E+03</pdfrwt>
<totfact> 0.10000675E+00</totfact>
</mgrwt>
</event>
<event>
 6      1 +2.6141198e-09 5.08872400e+02 7.81860800e-03 1.01148900e-01
        4 -1    0    0  501    0 +0.0000000000e+00 +0.0000000000e+00 +2.7841082995e+02 2.7841372656e+02 1.2700000000e+00 0.0000e+00 -1.0000e+00
       -4 -1    0    0    0  501 -0.0000000000e+00 -0.0000000000e+00 -2.3252023309e+02 2.3252370137e+02 1.2700000000e+00 0.0000e+00 -1.0000e+00
      -13  1    1    2    0    0 -9.7828451037e-01 -7.8550586690e+01 -2.8688323544e+01 8.3631230899e+01 1.0566000000e-01 0.0000e+00 -1.0000e+00
       13  1    1    2    0    0 +1.6810199730e+01 +8.1433808698e+00 -1.6814806560e+01 2.5132575488e+01 1.0566000000e-01 0.0000e+00 1.0000e+00
    10002  1    1    2    0    0 -1.2646645173e+02 -7.9024890773e+01 +2.7823925423e+01 1.8169443470e+02 1.0000000000e+02 0.0000e+00 0.0000e+00
   -10002  1    1    2    0    0 +1.1063453651e+02 +1.4943209659e+02 +6.3569801540e+01 2.2047918684e+02 1.0000000000e+02 0.0000e+00 0.0000e+00
<mgrwt>
<rscale>  0 0.50887239E+03</rscale>
<asrwt>0</asrwt>
<pdfrwt beam="1">  1        4 0.69603503E-01 0.50887239E+03</pdfrwt>
<pdfrwt beam="2">  1       -4 0.58130854E-01 0.50887239E+03</pdfrwt>
<totfact> 0.10356211E+01</totfact>
</mgrwt>
</event>
<event>
 6      1 +2.6141198e-09 3.63300400e+02 7.81860800e-03 1.05728500e-01
        4 -1    0    0  501    0 +0.0000000000e+00 +0.0000000000e+00 +4.0309234356e+02 4.0309434421e+02 1.2700000000e+00 0.0000e+00 -1.0000e+00
       -4 -1    0    0    0  501 -0.0000000000e+00 -0.0000000000e+00 -8.1852026012e+01 8.1861877954e+01 1.2700000000e+00 0.0000e+00 -1.0000e+00
      -13  1    1    2    0    0 +6.1065217128e+01 +9.1178482815e+00 +1.4591933596e+02 1.5844418472e+02 1.0566000000e-01 0.0000e+00 -1.0000e+00
       13  1    1    2    0    0 -2.5200415728e+01 -2.4897837379e+00 +8.3648701058e+00 2.6669124317e+01 1.0566000000e-01 0.0000e+00 1.0000e+00
    10002  1    1    2    0    0 -5.0581761947e+00 -6.8482108887e+01 +5.0150056951e+01 1.3126466621e+02 1.0000000000e+02 0.0000e+00 0.0000e+00
   -10002  1    1    2    0    0 -3.0806625205e+01 +6.1854044343e+01 +1.1680605452e+02 1.6857824691e+02 1.0000000000e+02 0.0000e+00 0.0000e+00
<mgrwt>
<rscale>  0 0.36330042E+03</rscale>
<asrwt>0</asrwt>
<pdfrwt beam="1">  1        4 0.10077457E+00 0.36330042E+03</pdfrwt>
<pdfrwt beam="2">  1       -4 0.20464488E-01 0.36330042E+03</pdfrwt>
<totfact> 0.34174648E+01</totfact>
</mgrwt>
</event>
<event>
 6      1 +2.6141198e-09 5.24125000e+02 7.81860800e-03 1.00766700e-01
       -4 -1    0    0    0  501 -0.0000000000e+00 +0.0000000000e+00 +1.5675361753e+02 1.5675876214e+02 1.2700000000e+00 0.0000e+00 1.0000e+00
        4 -1    0    0  501    0 +0.0000000000e+00 -0.0000000000e+00 -4.3810590609e+02 4.3810774685e+02 1.2700000000e+00 0.0000e+00 1.0000e+00
      -13  1    1    2    0    0 -6.6399910895e+01 -2.6713885249e+01 -1.1150751340e+02 1.3250100581e+02 1.0566000000e-01 0.0000e+00 1.0000e+00
       13  1    1    2    0    0 +1.1184268578e+01 -8.5568394671e+00 +1.5007209710e+01 2.0579962891e+01 1.0566000000e-01 0.0000e+00 -1.0000e+00
    10002  1    1    2    0    0 -1.2044333851e+02 -9.3965461192e+00 +1.0470638966e+01 1.5717673858e+02 1.0000000000e+02 0.0000e+00 0.0000e+00
   -10002  1    1    2    0    0 +1.7565898083e+02 +4.4667270836e+01 -1.9532262384e+02 2.8460880171e+02 1.0000000000e+02 0.0000e+00 0.0000e+00
<mgrwt>
<rscale>  0 0.52412504E+03</rscale>
<asrwt>0</asrwt>
<pdfrwt beam="1">  1        4 0.10952735E+00 0.52412504E+03</pdfrwt>
<pdfrwt beam="2">  1       -4 0.39189278E-01 0.52412504E+03</pdfrwt>
<totfact> 0.82269703E+00</totfact>
</mgrwt>
</event>
<event>
 6      1 +2.6141198e-09 3.82455500e+02 7.81860800e-03 1.05003000e-01
       -4 -1    0    0    0  501 -0.0000000000e+00 +0.0000000000e+00 +8.5170436607e+01 8.5179904742e+01 1.2700000000e+00 0.0000e+00 -1.0000e+00
        4 -1    0    0  501    0 +0.0000000000e+00 -0.0000000000e+00 -4.2931726227e+02 4.2931914071e+02 1.2700000000e+00 0.0000e+00 -1.0000e+00
      -13  1    1    2    0    0 -4.6742226146e+01 +5.8690186572e+00 -6.4043797087e+01 7.9504089168e+01 1.0566000000e-01 0.0000e+00 -1.0000e+00
       13  1    1    2    0    0 +4.0079924615e+01 +5.7919552838e+01 -4.6831453827e+01 8.4582924930e+01 1.0566000000e-01 0.0000e+00 1.0000e+00
    10002  1    1    2    0    0 +1.1301710103e+01 -9.5711705837e+01 -6.8172484979e+01 1.5471246554e+02 1.0000000000e+02 0.0000e+00 0.0000e+00
   -10002  1    1    2    0    0 -4.6394085725e+00 +3.1923134341e+01 -1.6509908977e+02 1.9569956581e+02 1.0000000000e+02 0.0000e+00 0.0000e+00
<mgrwt>
<rscale>  0 0.38245553E+03</rscale>
<asrwt>0</asrwt>
<pdfrwt beam="1">  1        4 0.10733073E+00 0.38245553E+03</pdfrwt>
<pdfrwt beam="2">  1       -4 0.21294029E-01 0.38245553E+03</pdfrwt>
<totfact> 0.27431647E+01</totfact>
</mgrwt>
</event>
<event>
 6      1 +2.6141198e-09 4.28839800e+02 7.81860800e-03 1.03422700e-01
       -4 -1    0    0    0  501 -0.0000000000e+00 +0.0000000000e+00 +1.0843917523e+02 1.0844661187e+02 1.2700000000e+00 0.0000e+00 -1.0000e+00
        4 -1    0    0  501    0 +0.0000000000e+00 -0.0000000000e+00 -4.2395570790e+02 4.2395761010e+02 1.2700000000e+00 0.0000e+00 -1.0000e+00
      -13  1    1    2    0    0 +4.0055142778e+01 +1.0726617131e+01 +4.7935558694e+00 4.1742833157e+01 1.0566000000e-01 0.0000e+00 1.0000e+00
       13  1    1    2    0    0 -1.0082757714e+01 +5.3710074449e+01 -7.6955795189e+01 9.4385590413e+01 1.0566000000e-01 0.0000e+00 -1.0000e+00
    10002  1    1    2    0    0 -2.2628429372e+01 -5.8368055292e+01 -2.6802165488e+02 2.9283866407e+02 1.0000000000e+02 0.0000e+00 0.0000e+00
   -10002  1    1    2    0    0 -7.3439556909e+00 -6.0686362879e+00 +2.4667361528e+01 1.0343713432e+02 1.0000000000e+02 0.0000e+00 0.0000e+00
<mgrwt>
<rscale>  0 0.42883980E+03</rscale>
<asrwt>0</asrwt>
<pdfrwt beam="1">  1        4 0.10599009E+00 0.42883980E+03</pdfrwt>
<pdfrwt beam="2">  1       -4 0.27110962E-01 0.42883980E+03</pdfrwt>
<totfact> 0.18118773E+01</totfact>
</mgrwt>
</event>
<event>
 6      1 +2.6141198e-09 4.43142600e+02 7.81860800e-03 1.02978700e-01
        4 -1    0    0  501    0 +0.0000000000e+00 +0.0000000000e+00 +1.6862647646e+02 1.6863125886e+02 1.2700000000e+00 0.0000e+00 -1.0000e+00
       -4 -1    0    0    0  501 -0.0000000000e+00 -0.0000000000e+00 -2.9112934508e+02 2.9113211515e+02 1.2700000000e+00 0.0000e+00 -1.0000e+00
      -13  1    1    2    0    0 -8.5210141154e+00 -4.1456371649e+01 -1.8158820816e+01 4.6054232914e+01 1.0566000000e-01 0.0000e+00 1.0000e+00
       13  1    1    2    0    0 +1.1317973629e+02 -4.2208504368e+00 -2.5095511341e+01 1.1600544875e+02 1.0566000000e-01 0.0000e+00 -1.0000e+00
    10002  1    1    2    0    0 -6.0003475141e+01 +2.8178930378e+01 -1.2898279043e+02 1.7615626407e+02 1.0000000000e+02 0.0000e+00 0.0000e+00
   -10002  1    1    2    0    0 -4.4655247039e+01 +1.7498291707e+01 +4.9734253958e+01 1.2154742826e+02 1.0000000000e+02 0.0000e+00 0.0000e+00
<mgrwt>
<rscale>  0 0.44314265E+03</rscale>
<asrwt>0</asrwt>
<pdfrwt beam="1">  1        4 0.42157563E-01 0.44314265E+03</pdfrwt>
<pdfrwt beam="2">  1       -4 0.72783280E-01 0.44314265E+03</pdfrwt>
<totfact> 0.18168144E+01</totfact>
</mgrwt>
</event>
<event>
 6      1 +2.6141198e-09 4.09549600e+02 7.81860800e-03 1.04052200e-01
       -4 -1    0    0    0  501 -0.0000000000e+00 +0.0000000000e+00 +7.9325039438e+01 7.9335205186e+01 1.2700000000e+00 0.0000e+00 1.0000e+00
        4 -1    0    0  501    0 +0.0000000000e+00 -0.0000000000e+00 -5.2857409665e+02 5.2857562236e+02 1.2700000000e+00 0.0000e+00 1.0000e+00
      -13  1    1    2    0    0 -1.1678934389e+01 +2.1171126966e+01 -6.2098416657e+01 6.6639617652e+01 1.0566000000e-01 0.0000e+00 1.0000e+00
       13  1    1    2    0    0 +3.3154097141e+01 -9.1147082732e+01 -1.4646723252e+02 1.7566913848e+02 1.0566000000e-01 0.0000e+00 -1.0000e+00
    10002  1    1    2    0    0 -8.2906114324e+00 +3.3421464603e+01 -4.1143511412e+00 1.0584260210e+02 1.0000000000e+02 0.0000e+00 0.0000e+00
   -10002  1    1    2    0    0 -1.3184551320e+01 +3.6554491163e+01 -2.3656905690e+02 2.5975946931e+02 1.0000000000e+02 0.0000e+00 0.0000e+00
<mgrwt>
<rscale>  0 0.40954958E+03</rscale>
<asrwt>0</asrwt>
<pdfrwt beam="1">  1        4 0.13214498E+00 0.40954958E+03</pdfrwt>
<pdfrwt beam="2">  1       -4 0.19832723E-01 0.40954958E+03</pdfrwt>
<totfact> 0.18828677E+01</totfact>
</mgrwt>
</event>
<event>
 6      1 +2.6141198e-09 3.32642100e+02 7.81860800e-03 1.06997400e-01
        4 -1    0    0  501    0 +0.0000000000e+00 +0.0000000000e+00 +4.1313338957e+01 4.1332854677e+01 1.2700000000e+00 0.0000e+00 1.0000e+00
       -4 -1    0    0    0  501 -0.0000000000e+00 -0.0000000000e+00 -6.6940451216e+02 6.6940571688e+02 1.2700000000e+00 0.0000e+00 1.0000e+00
      -13  1    1    2    0    0 -2.4985837458e+01 -1.5586478426e+01 +5.2914309426e-01 2.9453718605e+01 1.0566000000e-01 0.0000e+00 1.0000e+00
       13  1    1    2    0    0 +7.3654555848e+00 -3.6767150219e+01 -1.7353637489e+02 1.7754142572e+02 1.0566000000e-01 0.0000e+00 -1.0000e+00
    10002  1    1    2    0    0 +2.4994487101e+01 +4.5191648827e+00 -2.5103752604e+02 2.7141294501e+02 1.0000000000e+02 0.0000e+00 0.0000e+00
   -10002  1    1    2    0    0 -7.3741052273e+00 +4.7834463763e+01 -2.0404641536e+02 2.3233048223e+02 1.0000000000e+02 0.0000e+00 0.0000e+00
<mgrwt>
<rscale>  0 0.33264214E+03</rscale>
<asrwt>0</asrwt>
<pdfrwt beam="1">  1        4 0.10330927E-01 0.33264214E+03</pdfrwt>
<pdfrwt beam="2">  1       -4 0.16735368E+00 0.33264214E+03</pdfrwt>
<totfact> 0.31773857E+01</totfact>
</mgrwt>
</event>
<event>
 6      1 +2.6141198e-09 4.01803100e+02 7.81860800e-03 1.04315700e-01
        4 -1    0    0  501    0 +0.0000000000e+00 +0.0000000000e+00 +9.9180733090e+02 9.9180814401e+02 1.2700000000e+00 0.0000e+00 -1.0000e+00
       -4 -1    0    0    0  501 -0.0000000000e+00 -0.0000000000e+00 -4.0684085936e+01 4.0703903356e+01 1.2700000000e+00 0.0000e+00 -1.0000e+00
      -13  1    1    2    0    0 -5.4270367031e+00 +9.5484444465e+01 +1.4650613287e+02 1.7495939528e+02 1.0566000000e-01 0.0000e+00 1.0000e+00
       13  1    1    2    0    0 +1.9040436624e+01 -1.9347765994e+01 +9.3953704140e+01 9.7796645963e+01 1.0566000000e-01 0.0000e+00 -1.0000e+00
    10002  1    1    2    0    0 -4.7106828200e+01 -5.2403159014e+01 +5.6654954841e+02 5.7960636223e+02 1.0000000000e+02 0.0000e+00 0.0000e+00
   -10002  1    1    2    0    0 +3.3493428279e+01 -2.3733519457e+01 +1.4411385954e+02 1.8014964390e+02 1.0000000000e+02 0.0000e+00 0.0000e+00
<mgrwt>
<rscale>  0 0.40180306E+03</rscale>
<asrwt>0</asrwt>
<pdfrwt beam="1">  1        4 0.24795441E+00 0.40180306E+03</pdfrwt>
<pdfrwt beam="2">  1       -4 0.10173600E-01 0.40180306E+03</pdfrwt>
<totfact> 0.10058218E+01</totfact>
</mgrwt>
</event>
<event>
 6      1 +2.6141198e-09 4.73496400e+02 7.81860800e-03 1.02093800e-01
       -4 -1    0    0    0  501 -0.0000000000e+00 +0.0000000000e+00 +5.5595047394e+02 5.5595192452e+02 1.2700000000e+00 0.0000e+00 -1.0000e+00
        4 -1    0    0  501    0 +0.0000000000e+00 -0.0000000000e+00 -1.0081224464e+02 1.0082024384e+02 1.2700000000e+00 0.0000e+00 -1.0000e+00
      -13  1    1    2    0    0 -1.6943819595e+01 +4.2846173600e+01 +2.8070783525e+01 5.3952457463e+01 1.0566000000e-01 0.0000e+00 -1.0000e+00
       13  1    1    2    0    0 -1.9628851325e+01 -7.1392363786e+01 +6.6714372948e+01 9.9664337318e+01 1.0566000000e-01 0.0000e+00 1.0000e+00
    10002  1    1    2    0    0 +9.9086227699e+01 +5.0870602247e+01 +3.5239171609e+02 3.8286527691e+02 1.0000000000e+02 0.0000e+00 0.0000e+00
   -10002  1    1    2    0    0 -6.2513556780e+01 -2.2324412061e+01 +7.9613567383e+00 1.2029009667e+02 1.0000000000e+02 0.0000e+00 0.0000e+00
<mgrwt>
<rscale>  0 0.47349643E+03</rscale>
<asrwt>0</asrwt>
<pdfrwt beam="1">  1        4 0.25204243E-01 0.47349643E+03</pdfrwt>
<pdfrwt beam="2">  1       -4 0.13898880E+00 0.47349643E+03</pdfrwt>
<totfact> 0.10678184E+01</totfact>
</mgrwt>
</event>
<event>
 6      1 +2.6141198e-09 5.43867800e+02 7.81860800e-03 1.00292300e-01
        4 -1    0    0  501    0 +0.0000000000e+00 +0.0000000000e+00 +1.8918675111e+02 1.8919101378e+02 1.2700000000e+00 0.0000e+00 -1.0000e+00
       -4 -1    0    0    0  501 -0.0000000000e+00 -0.0000000000e+00 -3.9086358324e+02 3.9086564649e+02 1.2700000000e+00 0.0000e+00 -1.0000e+00
      -13  1    1    2    0    0 -1.9522437807e+01 +2.6794116384e+01 +4.4728452230e+00 3.3452470150e+01 1.0566000000e-01 0.0000e+00 1.0000e+00
       13  1    1    2    0    0 -4.6557746667e+01 -8.4033432226e+01 -2.9272803777e+01 1.0042982481e+02 1.0566000000e-01 0.0000e+00 -1.0000e+00
    10002  1    1    2    0    0 -4.4829807658e+01 +1.4105536916e+02 -2.0579284936e+02 2.7250142325e+02 1.0000000000e+02 0.0000e+00 0.0000e+00
   -10002  1    1    2    0    0 +1.1090999213e+02 -8.3816053320e+01 +2.8915975784e+01 1.7367294206e+02 1.0000000000e+02 0.0000e+00 0.0000e+00
<mgrwt>
<rscale>  0 0.54386780E+03</rscale>
<asrwt>0</asrwt>
<pdfrwt beam="1">  1        4 0.47297479E-01 0.54386780E+03</pdfrwt>
<pdfrwt beam="2">  1       -4 0.97716685E-01 0.54386780E+03</pdfrwt>
<totfact> 0.73835905E+00</totfact>
</mgrwt>
</event>
<event>
 6      1 +2.6141198e-09 3.51737300e+02 7.81860800e-03 1.06190400e-01
       -4 -1    0    0    0  501 -0.0000000000e+00 +0.0000000000e+00 +4.5535774018e+02 4.5535951120e+02 1.2700000000e+00 0.0000e+00 1.0000e+00
        4 -1    0    0  501    0 +0.0000000000e+00 -0.0000000000e+00 -6.7916281220e+01 6.7928154360e+01 1.2700000000e+00 0.0000e+00 1.0000e+00
      -13  1    1    2    0    0 -5.5526582354e+01 -3.1714168712e+01 +7.8869471956e+01 1.0153518905e+02 1.0566000000e-01 0.0000e+00 -1.0000e+00
       13  1    1    2    0    0 +3.4752075928e+01 +2.1264410478e+01 +4.5195748107e+01 6.0848572254e+01 1.0566000000e-01 0.0000e+00 1.0000e+00
    10002  1    1    2    0    0 +5.0570407198e+01 +1.3836506441e+01 +5.0262853106e+01 1.2359275625e+02 1.0000000000e+02 0.0000e+00 0.0000e+00
   -10002  1    1    2    0    0 -2.9795900772e+01 -3.3867482072e+00 +2.1311338579e+02 2.3731114801e+02 1.0000000000e+02 0.0000e+00 0.0000e+00
<mgrwt>
<rscale>  0 0.35173726E+03</rscale>
<asrwt>0</asrwt>
<pdfrwt beam="1">  1        4 0.16980776E-01 0.35173726E+03</pdfrwt>
<pdfrwt beam="2">  1       -4 0.11384114E+00 0.35173726E+03</pdfrwt>
<totfact> 0.35717871E+01</totfact>
</mgrwt>
</event>
<event>
 6      1 +2.6141198e-09 4.05442300e+02 7.81860800e-03 1.04191100e-01
       -4 -1    0    0    0  501 -0.0000000000e+00 +0.0000000000e+00 +9.8661067506e+02 9.8661149245e+02 1.2700000000e+00 0.0000e+00 -1.0000e+00
        4 -1    0    0  501    0 +0.0000000000e+00 -0.0000000000e+00 -4.1643057653e+01 4.1662418925e+01 1.2700000000e+00 0.0000e+00 -1.0000e+00
      -13  1    1    2    0    0 +3.7945410706e+01 -4.1134605806e+00 +1.0047233357e+02 1.0747779179e+02 1.0566000000e-01 0.0000e+00 -1.0000e+00
       13  1    1    2    0    0 -4.2492638041e+01 +5.9600386354e+01 +2.1727781423e+02 2.2927601283e+02 1.0566000000e-01 0.0000e+00 1.0000e+00
    10002  1    1    2    0    0 +5.4385940022e+00 +4.4676453846e+01 +1.1015004583e+02 1.5543035877e+02 1.0000000000e+02 0.0000e+00 0.0000e+00
   -10002  1    1    2    0    0 -8.9136666712e-01 -1.0016337962e+02 +5.1706742378e+02 5.3608974798e+02 1.0000000000e+02 0.0000e+00 0.0000e+00
<mgrwt>
<rscale>  0 0.40544228E+03</rscale>
<asrwt>0</asrwt>
<pdfrwt beam="1">  1        4 0.10413287E-01 0.40544228E+03</pdfrwt>
<pdfrwt beam="2">  1       -4 0.24665518E+00 0.40544228E+03</pdfrwt>
<totfact> 0.98412155E+00</totfact>
</mgrwt>
</event>
<event>
 6      1 +2.6141198e-09 3.78127400e+02 7.81860800e-03 1.05162800e-01
       -4 -1    0    0    0  501 -0.0000000000e+00 +0.0000000000e+00 +3.9680446739e+02 3.9680649975e+02 1.2700000000e+00 0.0000e+00 1.0000e+00
        4 -1    0    0  501    0 +0.0000000000e+00 -0.0000000000e+00 -9.0075615974e+01 9.0084568562e+01 1.2700000000e+00 0.0000e+00 1.0000e+00
      -13  1    1    2    0    0 -1.3669627417e+01 -1.8569807050e+01 -1.0765006975e+01 2.5447848372e+01 1.0566000000e-01 0.0000e+00 1.0000e+00
       13  1    1    2    0    0 +6.3267633077e+01 -2.7510554870e+01 +6.2403160760e+01 9.3025747303e+01 1.0566000000e-01 0.0000e+00 -1.0000e+00
    10002  1    1    2    0    0 +2.4274858086e+01 +7.2635515111e+01 +7.0683823551e+01 1.4443472471e+02 1.0000000000e+02 0.0000e+00 0.0000e+00
   -10002  1    1    2    0    0 -7.3872863746e+01 -2.6555153191e+01 +1.8440687408e+02 2.2398274793e+02 1.0000000000e+02 0.0000e+00 0.0000e+00
<mgrwt>
<rscale>  0 0.37812739E+03</rscale>
<asrwt>0</asrwt>
<pdfrwt beam="1">  1        4 0.22520277E-01 0.37812739E+03</pdfrwt>
<pdfrwt beam="2">  1       -4 0.99202489E-01 0.37812739E+03</pdfrwt>
<totfact> 0.29813608E+01</totfact>
</mgrwt>
</event>
<event>
 6      1 +2.6141198e-09 3.93883300e+02 7.81860800e-03 1.04591800e-01
       -4 -1    0    0    0  501 -0.0000000000e+00 +0.0000000000e+00 +1.0067405363e+02 1.0068206382e+02 1.2700000000e+00 0.0000e+00 1.0000e+00
        4 -1    0    0  501    0 +0.0000000000e+00 -0.0000000000e+00 -3.8523888375e+02 3.8524097712e+02 1.2700000000e+00 0.0000e+00 1.0000e+00
      -13  1    1    2    0    0 +5.4412399161e-01 -5.1417674840e+01 +1.7170851337e+01 5.4211831334e+01 1.0566000000e-01 0.0000e+00 1.0000e+00
       13  1    1    2    0    0 -2.3090147891e+01 +5.5930816114e+01 -3.6941933813e+01 7.0895195597e+01 1.0566000000e-01 0.0000e+00 -1.0000e+00
    10002  1    1    2    0    0 -2.8051438618e+01 +1.0716467886e+01 -2.1132628584e+02 2.3571280190e+02 1.0000000000e+02 0.0000e+00 0.0000e+00
   -10002  1    1    2    0    0 +5.0597462518e+01 -1.5229609160e+01 -5.3467461810e+01 1.2510321211e+02 1.0000000000e+02 0.0000e+00 0.0000e+00
<mgrwt>
<rscale>  0 0.39388331E+03</rscale>
<asrwt>0</asrwt>
<pdfrwt beam="1">  1        4 0.96310980E-01 0.39388331E+03</pdfrwt>
<pdfrwt beam="2">  1       -4 0.25169777E-01 0.39388331E+03</pdfrwt>
<totfact> 0.26036166E+01</totfact>
</mgrwt>
</event>
<event>
 6      1 +2.6141198e-09 4.47970100e+02 7.81860800e-03 1.02832900e-01
        4 -1    0    0  501    0 +0.0000000000e+00 +0.0000000000e+00 +4.0964249376e+01 4.0983931326e+01 1.2700000000e+00 0.0000e+00 -1.0000e+00
       -4 -1    0    0    0  501 -0.0000000000e+00 -0.0000000000e+00 -1.2243954059e+03 1.2243960645e+03 1.2700000000e+00 0.0000e+00 -1.0000e+00
      -13  1    1    2    0    0 -6.4778150795e+01 +6.9036813665e+00 -2.5043376201e+02 2.5876813938e+02 1.0566000000e-01 0.0000e+00 1.0000e+00
       13  1    1    2    0    0 +2.6789495084e+01 -4.0771163905e+01 -1.5094951327e+02 1.5863710654e+02 1.0566000000e-01 0.0000e+00 -1.0000e+00
    10002  1    1    2    0    0 +2.9907026699e+01 +3.3057449125e+01 -7.2376057631e+01 1.3124602435e+02 1.0000000000e+02 0.0000e+00 0.0000e+00
   -10002  1    1    2    0    0 +8.0816290116e+00 +8.1003341342e-01 -7.0967182359e+02 7.1672872559e+02 1.0000000000e+02 0.0000e+00 0.0000e+00
<mgrwt>
<rscale>  0 0.44797012E+03</rscale>
<asrwt>0</asrwt>
<pdfrwt beam="1">  1        4 0.10243609E-01 0.44797012E+03</pdfrwt>
<pdfrwt beam="2">  1       -4 0.30610127E+00 0.44797012E+03</pdfrwt>
<totfact> 0.44541526E+00</totfact>
</mgrwt>
</event>
<event>
 6      1 +2.6141198e-09 4.78880100e+02 7.81860800e-03 1.01944300e-01
        4 -1    0    0  501    0 +0.0000000000e+00 +0.0000000000e+00 +3.0960976721e+02 3.0961237193e+02 1.2700000000e+00 0.0000e+00 -1.0000e+00
       -4 -1    0    0    0  501 -0.0000000000e+00 -0.0000000000e+00 -1.8516794586e+02 1.8517230105e+02 1.2700000000e+00 0.0000e+00 -1.0000e+00
      -13  1    1    2    0    0 -5.0407143696e+01 -4.0923213893e+01 -1.6644646923e+01 6.7027196019e+01 1.0566000000e-01 0.0000e+00 1.0000e+00
       13  1    1    2    0    0 -3.0970130650e+01 -2.4908424887e+01 +7.2631229634e+01 8.2794234733e+01 1.0566000000e-01 0.0000e+00 -1.0000e+00
    10002  1    1    2    0    0 +4.3132569188e+01 -4.5843355331e+01 +1.3249178590e+02 1.7752775862e+02 1.0000000000e+02 0.0000e+00 0.0000e+00
   -10002  1    1    2    0    0 +3.8244705159e+01 +1.1167499411e+02 -6.4036547262e+01 1.6743548360e+02 1.0000000000e+02 0.0000e+00 0.0000e+00
<mgrwt>
<rscale>  0 0.47888005E+03</rscale>
<asrwt>0</asrwt>
<pdfrwt beam="1">  1        4 0.77403311E-01 0.47888005E+03</pdfrwt>
<pdfrwt beam="2">  1       -4 0.46292857E-01 0.47888005E+03</pdfrwt>
<totfact> 0.13136445E+01</totfact>
</mgrwt>
</event>
<event>
 6      1 +2.6141198e-09 4.30812500e+02 7.81860800e-03 1.03360400e-01
        4 -1    0    0  501    0 +0.0000000000e+00 +0.0000000000e+00 +3.9573127064e+02 3.9573330851e+02 1.2700000000e+00 0.0000e+00 -1.0000e+00
       -4 -1    0    0    0  501 -0.0000000000e+00 -0.0000000000e+00 -1.1724512177e+02 1.1725199989e+02 1.2700000000e+00 0.0000e+00 -1.0000e+00
      -13  1    1    2    0    0 +6.8956597611e+00 +7.3330762016e+01 -1.3391127914e+01 7.4861767628e+01 1.0566000000e-01 0.0000e+00 -1.0000e+00
       13  1    1    2    0    0 +9.8685328815e+00 -3.3298139660e+01 +2.9038158891e+01 4.5270077113e+01 1.0566000000e-01 0.0000e+00 1.0000e+00
    10002  1    1    2    0    0 -8.9206897476e+01 -4.9304268679e+01 +2.1910766976e+02 2.6152811018e+02 1.0000000000e+02 0.0000e+00 0.0000e+00
   -10002  1    1    2    0    0 +7.2442704833e+01 +9.2716463225e+00 +4.3731448134e+01 1.3132535347e+02 1.0000000000e+02 0.0000e+00 0.0000e+00
<mgrwt>
<rscale>  0 0.43081248E+03</rscale>
<asrwt>0</asrwt>
<pdfrwt beam="1">  1        4 0.98933931E-01 0.43081248E+03</pdfrwt>
<pdfrwt beam="2">  1       -4 0.29312395E-01 0.43081248E+03</pdfrwt>
<totfact> 0.18397695E+01</totfact>
</mgrwt>
</event>
<event>
 6      1 +2.6141198e-09 3.85997800e+02 7.81860800e-03 1.04873900e-01
        4 -1    0    0  501    0 +0.0000000000e+00 +0.0000000000e+00 +3.4576217189e+02 3.4576450426e+02 1.2700000000e+00 0.0000e+00 1.0000e+00
       -4 -1    0    0    0  501 -0.0000000000e+00 -0.0000000000e+00 -1.0772246320e+02 1.0772994930e+02 1.2700000000e+00 0.0000e+00 1.0000e+00
      -13  1    1    2    0    0 +4.4131134033e+00 +2.3777191925e+01 +2.2201709121e+01 3.2829216830e+01 1.0566000000e-01 0.0000e+00 -1.0000e+00
       13  1    1    2    0    0 +5.3187990605e+01 -4.9817074053e-01 -4.7698787254e+01 7.1445055730e+01 1.0566000000e-01 0.0000e+00 1.0000e+00
    10002  1    1    2    0    0 -3.6065896250e+01 -4.3549947296e+01 +8.6695980889e+01 1.4392199236e+02 1.0000000000e+02 0.0000e+00 0.0000e+00
   -10002  1    1    2    0    0 -2.1535207758e+01 +2.0270926111e+01 +1.7684080594e+02 2.0529818865e+02 1.0000000000e+02 0.0000e+00 0.0000e+00
<mgrwt>
<rscale>  0 0.38599782E+03</rscale>
<asrwt>0</asrwt>
<pdfrwt beam="1">  1        4 0.86441770E-01 0.38599782E+03</pdfrwt>
<pdfrwt beam="2">  1       -4 0.26931843E-01 0.38599782E+03</pdfrwt>
<totfact> 0.29384889E+01</totfact>
</mgrwt>
</event>
<event>
 6      1 +2.6141198e-09 1.02488100e+03 7.81860800e-03 9.28166900e-02
        4 -1    0    0  501    0 +0.0000000000e+00 +0.0000000000e+00 +6.9746711100e+02 6.9746826726e+02 1.2700000000e+00 0.0000e+00 1.0000e+00
       -4 -1    0    0    0  501 -0.0000000000e+00 -0.0000000000e+00 -3.7649603792e+02 3.7649817990e+02 1.2700000000e+00 0.0000e+00 1.0000e+00
      -13  1    1    2    0    0 +1.1095218387e+02 +1.6226158660e+00 +1.0095352679e+02 1.5001548495e+02 1.0566000000e-01 0.0000e+00 1.0000e+00
       13  1    1    2    0    0 -1.6682754823e+01 -2.1482228245e+01 +2.7127932566e+01 3.8415313720e+01 1.0566000000e-01 0.0000e+00 -1.0000e+00
    10002  1    1    2    0    0 +1.2226398784e+02 -2.0735454153e+02 +4.1369438797e+02 4.8896567901e+02 1.0000000000e+02 0.0000e+00 0.0000e+00
   -10002  1    1    2    0    0 -2.1653341689e+02 +2.2721415390e+02 -2.2080477424e+02 3.9656996948e+02 1.0000000000e+02 0.0000e+00 0.0000e+00
<mgrwt>
<rscale>  0 0.10248812E+04</rscale>
<asrwt>0</asrwt>
<pdfrwt beam="1">  1        4 0.17436719E+00 0.10248812E+04</pdfrwt>
<pdfrwt beam="2">  1       -4 0.94124423E-01 0.10248812E+04</pdfrwt>
<totfact> 0.36394293E-01</totfact>
</mgrwt>
</event>
<event>
 6      1 +2.6141198e-09 3.91404700e+02 7.81860800e-03 1.04679700e-01
        4 -1    0    0  501    0 +0.0000000000e+00 +0.0000000000e+00 +1.0451260853e+02 1.0452032454e+02 1.2700000000e+00 0.0000e+00 1.0000e+00
       -4 -1    0    0    0  501 -0.0000000000e+00 -0.0000000000e+00 -3.6643505378e+02 3.6643725457e+02 1.2700000000e+00 0.0000e+00 1.0000e+00
      -13  1    1    2    0    0 +3.0097882909e+01 -7.3859703502e+00 +2.0514256233e+01 3.7165588740e+01 1.0566000000e-01 0.0000e+00 1.0000e+00
       13  1    1    2    0    0 -1.4187567293e+01 +5.2475479815e+01 -6.7726380343e+01 8.6843749377e+01 1.0566000000e-01 0.0000e+00 -1.0000e+00
    10002  1    1    2    0    0 +7.9283848405e+01 -1.5013447531e+01 -1.2682929157e+02 1.8054639688e+02 1.0000000000e+02 0.0000e+00 0.0000e+00
   -10002  1    1    2    0    0 -9.5194164021e+01 -3.0076061933e+01 -8.7881029568e+01 1.6640184411e+02 1.0000000000e+02 0.0000e+00 0.0000e+00
<mgrwt>
<rscale>  0 0.39140474E+03</rscale>
<asrwt>0</asrwt>
<pdfrwt beam="1">  1        4 0.26129393E-01 0.39140474E+03</pdfrwt>
<pdfrwt beam="2">  1       -4 0.91610000E-01 0.39140474E+03</pdfrwt>
<totfact> 0.27249472E+01</totfact>
</mgrwt>
</event>
<event>
 6      1 +2.6141198e-09 5.33305800e+02 7.81860800e-03 1.00543400e-01
        4 -1    0    0  501    0 +0.0000000000e+00 +0.0000000000e+00 +2.9070026414e+02 2.9070303829e+02 1.2700000000e+00 0.0000e+00 1.0000e+00
       -4 -1    0    0    0  501 -0.0000000000e+00 -0.0000000000e+00 -2.4458916309e+02 2.4459246023e+02 1.2700000000e+00 0.0000e+00 1.0000e+00
      -13  1    1    2    0    0 +8.5589619167e+01 +5.3116894349e+01 -2.2075769048e+01 1.0312292722e+02 1.0566000000e-01 0.0000e+00 1.0000e+00
       13  1    1    2    0    0 -1.5241587287e+01 +5.4912485861e+01 -6.4219919607e+01 8.5859747989e+01 1.0566000000e-01 0.0000e+00 -1.0000e+00
    10002  1    1    2    0    0 -2.9895385726e+01 -1.0100960369e+01 -4.7242679980e+01 1.1501145291e+02 1.0000000000e+02 0.0000e+00 0.0000e+00
   -10002  1    1    2    0    0 -4.0452646155e+01 -9.7928419842e+01 +1.7964946968e+02 2.3130137041e+02 1.0000000000e+02 0.0000e+00 0.0000e+00
<mgrwt>
<rscale>  0 0.53330576E+03</rscale>
<asrwt>0</asrwt>
<pdfrwt beam="1">  1        4 0.72675825E-01 0.53330576E+03</pdfrwt>
<pdfrwt beam="2">  1       -4 0.61148050E-01 0.53330576E+03</pdfrwt>
<totfact> 0.84566584E+00</totfact>
</mgrwt>
</event>
<event>
 6      1 +2.6141198e-09 4.02661200e+02 7.81860800e-03 1.04286200e-01
        4 -1    0    0  501    0 +0.0000000000e+00 +0.0000000000e+00 +2.8780591951e+02 2.8780872155e+02 1.2700000000e+00 0.0000e+00 -1.0000e+00
       -4 -1    0    0    0  501 -0.0000000000e+00 -0.0000000000e+00 -1.4083162420e+02 1.4083735043e+02 1.2700000000e+00 0.0000e+00 -1.0000e+00
      -13  1    1    2    0    0 +5.1145251003e+01 -6.5786137504e-01 +1.9990607499e+01 5.4917256250e+01 1.0566000000e-01 0.0000e+00 -1.0000e+00
       13  1    1    2    0    0 -3.3152240238e+01 +4.6699643581e+01 +4.4435257137e+01 7.2487453979e+01 1.0566000000e-01 0.0000e+00 1.0000e+00
    10002  1    1    2    0    0 +5.2972274818e+01 +5.9365443148e+01 +3.0609440948e+01 1.3140492995e+02 1.0000000000e+02 0.0000e+00 0.0000e+00
   -10002  1    1    2    0    0 -7.0965285584e+01 -1.0540722535e+02 +5.1938989720e+01 1.6983643180e+02 1.0000000000e+02 0.0000e+00 0.0000e+00
<mgrwt>
<rscale>  0 0.40266116E+03</rscale>
<asrwt>0</asrwt>
<pdfrwt beam="1">  1        4 0.71952545E-01 0.40266116E+03</pdfrwt>
<pdfrwt beam="2">  1       -4 0.35208972E-01 0.40266116E+03</pdfrwt>
<totfact> 0.26538961E+01</totfact>
</mgrwt>
</event>
<event>
 6      1 +2.6141198e-09 5.71148800e+02 7.81860800e-03 9.96714000e-02
        4 -1    0    0  501    0 +0.0000000000e+00 +0.0000000000e+00 +1.4609750676e+03 1.4609756196e+03 1.2700000000e+00 0.0000e+00 1.0000e+00
       -4 -1    0    0    0  501 -0.0000000000e+00 -0.0000000000e+00 -5.5812963838e+01 5.5827411121e+01 1.2700000000e+00 0.0000e+00 1.0000e+00
      -13  1    1    2    0    0 +8.4503607924e+01 +4.8784384035e+01 +1.4292643992e+02 1.7305708385e+02 1.0566000000e-01 0.0000e+00 -1.0000e+00
       13  1    1    2    0    0 +7.4099775384e+01 -1.8523868256e+01 +3.5314470557e+02 3.6131026092e+02 1.0566000000e-01 0.0000e+00 1.0000e+00
    10002  1    1    2    0    0 +4.6267094833e+01 +2.6100418839e+01 +1.5058659833e+02 1.8840965878e+02 1.0000000000e+02 0.0000e+00 0.0000e+00
   -10002  1    1    2    0    0 -2.0487047814e+02 -5.6360934617e+01 +7.5850435997e+02 7.9402602719e+02 1.0000000000e+02 0.0000e+00 0.0000e+00
<mgrwt>
<rscale>  0 0.57114875E+03</rscale>
<asrwt>0</asrwt>
<pdfrwt beam="1">  1        4 0.36524564E+00 0.57114875E+03</pdfrwt>
<pdfrwt beam="2">  1       -4 0.13955116E-01 0.57114875E+03</pdfrwt>
<totfact> 0.10993601E+00</totfact>
</mgrwt>
</event>
<event>
 6      1 +2.6141198e-09 4.92230400e+02 7.81860800e-03 1.01582700e-01
        4 -1    0    0  501    0 +0.0000000000e+00 +0.0000000000e+00 +2.5199939919e+02 2.5200259937e+02 1.2700000000e+00 0.0000e+00 -1.0000e+00
       -4 -1    0    0    0  501 -0.0000000000e+00 -0.0000000000e+00 -2.4036201543e+02 2.4036537055e+02 1.2700000000e+00 0.0000e+00 -1.0000e+00
      -13  1    1    2    0    0 +3.2512967446e+01 -3.6337429848e+01 +3.2007887525e+01 5.8326819628e+01 1.0566000000e-01 0.0000e+00 -1.0000e+00
       13  1    1    2    0    0 -6.7271907175e+01 +6.7781286103e+00 +9.9635370183e-01 6.7619940899e+01 1.0566000000e-01 0.0000e+00 1.0000e+00
    10002  1    1    2    0    0 -1.1314502902e+02 -6.4263656474e+01 -9.2975357584e+00 1.6437171078e+02 1.0000000000e+02 0.0000e+00 0.0000e+00
   -10002  1    1    2    0    0 +1.4790396874e+02 +9.3822957712e+01 -1.2069321713e+01 2.0204949862e+02 1.0000000000e+02 0.0000e+00 0.0000e+00
<mgrwt>
<rscale>  0 0.49223042E+03</rscale>
<asrwt>0</asrwt>
<pdfrwt beam="1">  1        4 0.63000669E-01 0.49223042E+03</pdfrwt>
<pdfrwt beam="2">  1       -4 0.60091323E-01 0.49223042E+03</pdfrwt>
<totfact> 0.11977726E+01</totfact>
</mgrwt>
</event>
<event>
 6      1 +2.6141198e-09 6.76282000e+02 7.81860800e-03 9.75867500e-02
        4 -1    0    0  501    0 +0.0000000000e+00 +0.0000000000e+00 +5.2021916643e+02 5.2022071664e+02 1.2700000000e+00 0.0000e+00 1.0000e+00
       -4 -1    0    0    0  501 -0.0000000000e+00 -0.0000000000e+00 -2.1978697960e+02 2.1979064880e+02 1.2700000000e+00 0.0000e+00 1.0000e+00
      -13  1    1    2    0    0 -1.8887729943e+01 +2.9712819872e+01 -5.2691717777e+01 6.3372125525e+01 1.0566000000e-01 0.0000e+00 -1.0000e+00
       13  1    1    2    0    0 -2.3525973483e+01 +1.9392878976e+01 +4.4060007968e+01 5.3580319609e+01 1.0566000000e-01 0.0000e+00 1.0000e+00
    10002  1    1    2    0    0 +1.2535195354e+02 -1.1494059912e+02 +4.0372490712e+02 4.4935315089e+02 1.0000000000e+02 0.0000e+00 0.0000e+00
   -10002  1    1    2    0    0 -8.2938250115e+01 +6.5834900268e+01 -9.4661010478e+01 1.7370576942e+02 1.0000000000e+02 0.0000e+00 0.0000e+00
<mgrwt>
<rscale>  0 0.67628198E+03</rscale>
<asrwt>0</asrwt>
<pdfrwt beam="1">  1        4 0.13005544E+00 0.67628198E+03</pdfrwt>
<pdfrwt beam="2">  1       -4 0.54947398E-01 0.67628198E+03</pdfrwt>
<totfact> 0.26877996E+00</totfact>
</mgrwt>
</event>
<event>
 7      1 +2.6141198e-09 3.75385200e+02 7.81860800e-03 1.05265300e-01
        4 -1    0    0  501    0 +0.0000000000e+00 +0.0000000000e+00 +4.9202740132e+02 4.9202904035e+02 1.2700000000e+00 0.0000e+00 1.0000e+00
       -4 -1    0    0    0  501 -0.0000000000e+00 -0.0000000000e+00 -7.1591304008e+01 7.1602567758e+01 1.2700000000e+00 0.0000e+00 1.0000e+00
       25  2    1    2    0    0 -4.1663154193e+00 +5.2262034568e+01 +1.4479657084e+02 1.9834359736e+02 1.2500182897e+02 0.0000e+00 0.0000e+00
      -13  1    3    3    0    0 +5.9735621204e+01 +2.9274686159e+01 +8.4367611325e+01 1.0743954903e+02 1.0566000000e-01 0.0000e+00 1.0000e+00
       13  1    3    3    0    0 -6.3901936624e+01 +2.2987348409e+01 +6.0428959510e+01 9.0904048329e+01 1.0566000000e-01 0.0000e+00 1.0000e+00
    10002  1    1    2    0    0 +2.0819943812e+00 -8.8064581164e+01 +1.6080434465e+02 2.0884861123e+02 1.0000000000e+02 0.0000e+00 0.0000e+00
   -10002  1    1    2    0    0 +2.0843210381e+00 +3.5802546596e+01 +1.1483518183e+02 1.5643939952e+02 1.0000000000e+02 0.0000e+00 0.0000e+00
<mgrwt>
<rscale>  0 0.37538524E+03</rscale>
<asrwt>0</asrwt>
<pdfrwt beam="1">  1        4 0.12300846E+00 0.37538524E+03</pdfrwt>
<pdfrwt beam="2">  1       -4 0.17899439E-01 0.37538524E+03</pdfrwt>
<totfact> 0.26995714E+01</totfact>
</mgrwt>
</event>
<event>
 6      1 +2.6141198e-09 4.71652100e+02 7.81860800e-03 1.02145500e-01
       -4 -1    0    0    0  501 -0.0000000000e+00 +0.0000000000e+00 +1.5641926384e+03 1.5641931540e+03 1.2700000000e+00 0.0000e+00 1.0000e+00
        4 -1    0    0  501    0 +0.0000000000e+00 -0.0000000000e+00 -3.5542537379e+01 3.5565219855e+01 1.2700000000e+00 0.0000e+00 1.0000e+00
      -13  1    1    2    0    0 +2.7214069631e+01 -6.7097015141e+00 +8.0883642975e+01 8.5602573240e+01 1.0566000000e-01 0.0000e+00 1.0000e+00
       13  1    1    2    0    0 -7.5993137798e+01 -4.9881896616e+01 +2.0958721903e+02 2.2845125114e+02 1.0566000000e-01 0.0000e+00 -1.0000e+00
    10002  1    1    2    0    0 -1.6518163279e+01 -4.7601296982e+01 +9.5204194250e+02 9.5860450316e+02 1.0000000000e+02 0.0000e+00 0.0000e+00
   -10002  1    1    2    0    0 +6.5297231447e+01 +1.0419289511e+02 +2.8613729654e+02 3.2710004632e+02 1.0000000000e+02 0.0000e+00 0.0000e+00
<mgrwt>
<rscale>  0 0.47165212E+03</rscale>
<asrwt>0</asrwt>
<pdfrwt beam="1">  1        4 0.88885346E-02 0.47165212E+03</pdfrwt>
<pdfrwt beam="2">  1       -4 0.39105104E+00 0.47165212E+03</pdfrwt>
<totfact> 0.16410353E+00</totfact>
</mgrwt>
</event>
<event>
 6      1 +2.6141198e-09 4.02389100e+02 7.81860800e-03 1.04295600e-01
        4 -1    0    0  501    0 +0.0000000000e+00 +0.0000000000e+00 +5.7381025817e+01 5.7395078393e+01 1.2700000000e+00 0.0000e+00 1.0000e+00
       -4 -1    0    0    0  501 -0.0000000000e+00 -0.0000000000e+00 -7.0534567904e+02 7.0534682238e+02 1.2700000000e+00 0.0000e+00 1.0000e+00
      -13  1    1    2    0    0 +2.8267448667e+01 -1.6690084832e+00 -9.0462374330e+01 9.4790751536e+01 1.0566000000e-01 0.0000e+00 1.0000e+00
       13  1    1    2    0    0 -1.6186719780e+01 +2.8636320988e+01 +8.7227336716e+00 3.4031544539e+01 1.0566000000e-01 0.0000e+00 -1.0000e+00
    10002  1    1    2    0    0 -7.4984249335e+01 -3.3168454867e+01 -4.4948082742e+02 4.6771337191e+02 1.0000000000e+02 0.0000e+00 0.0000e+00
   -10002  1    1    2    0    0 +6.2903520448e+01 +6.2011423614e+00 -1.1674418514e+02 1.6620623278e+02 1.0000000000e+02 0.0000e+00 0.0000e+00
<mgrwt>
<rscale>  0 0.40238913E+03</rscale>
<asrwt>0</asrwt>
<pdfrwt beam="1">  1        4 0.14347158E-01 0.40238913E+03</pdfrwt>
<pdfrwt beam="2">  1       -4 0.17633829E+00 0.40238913E+03</pdfrwt>
<totfact> 0.15699839E+01</totfact>
</mgrwt>
</event>
<event>
 6      1 +2.6141198e-09 8.27297600e+02 7.81860800e-03 9.52132400e-02
        4 -1    0    0  501    0 +0.0000000000e+00 +0.0000000000e+00 +4.6432610654e+02 4.6432784335e+02 1.2700000000e+00 0.0000e+00 1.0000e+00
       -4 -1    0    0    0  501 -0.0000000000e+00 -0.0000000000e+00 -3.6849901808e+02 3.6850120654e+02 1.2700000000e+00 0.0000e+00 1.0000e+00
      -13  1    1    2    0    0 -1.8516948687e+01 -2.4715982053e+01 +1.9680145745e+01 3.6620710781e+01 1.0566000000e-01 0.0000e+00 -1.0000e+00
       13  1    1    2    0    0 +3.1460934673e+01 +7.1245236703e+01 +3.0667333316e+01 8.3702871278e+01 1.0566000000e-01 0.0000e+00 1.0000e+00
    10002  1    1    2    0    0 -1.6948444581e+02 +2.4992118943e+02 -1.0025968043e+02 3.3352298544e+02 1.0000000000e+02 0.0000e+00 0.0000e+00
   -10002  1    1    2    0    0 +1.5654045983e+02 -2.9645044408e+02 +1.4573928983e+02 3.7898248239e+02 1.0000000000e+02 0.0000e+00 0.0000e+00
<mgrwt>
<rscale>  0 0.82729765E+03</rscale>
<asrwt>0</asrwt>
<pdfrwt beam="1">  1        4 0.11608202E+00 0.82729765E+03</pdfrwt>
<pdfrwt beam="2">  1       -4 0.92125246E-01 0.82729765E+03</pdfrwt>
<totfact> 0.11273813E+00</totfact>
</mgrwt>
</event>
<event>
 6      1 +2.6141198e-09 1.00968900e+03 7.81860800e-03 9.29798100e-02
        4 -1    0    0  501    0 +0.0000000000e+00 +0.0000000000e+00 +8.2002711711e+02 8.2002810055e+02 1.2700000000e+00 0.0000e+00 -1.0000e+00
       -4 -1    0    0    0  501 -0.0000000000e+00 -0.0000000000e+00 -3.1080195199e+02 3.1080454672e+02 1.2700000000e+00 0.0000e+00 -1.0000e+00
      -13  1    1    2    0    0 +6.7977861757e+01 +4.2155871191e+00 +1.2043001322e+02 1.3835519547e+02 1.0566000000e-01 0.0000e+00 1.0000e+00
       13  1    1    2    0    0 -3.0109174544e+01 +2.5456245220e+01 +7.7920948936e+01 8.7328507714e+01 1.0566000000e-01 0.0000e+00 -1.0000e+00
    10002  1    1    2    0    0 +2.2562590747e+02 +4.4215763936e+01 -1.9752315444e+02 3.1918251901e+02 1.0000000000e+02 0.0000e+00 0.0000e+00
   -10002  1    1    2    0    0 -2.6349459468e+02 -7.3887596275e+01 +5.0839735741e+02 5.8596642508e+02 1.0000000000e+02 0.0000e+00 0.0000e+00
<mgrwt>
<rscale>  0 0.10096892E+04</rscale>
<asrwt>0</asrwt>
<pdfrwt beam="1">  1        4 0.20500723E+00 0.10096892E+04</pdfrwt>
<pdfrwt beam="2">  1       -4 0.77700936E-01 0.10096892E+04</pdfrwt>
<totfact> 0.35216979E-01</totfact>
</mgrwt>
</event>
<event>
 6      1 +2.6141198e-09 5.15088400e+02 7.81860800e-03 1.00991400e-01
        4 -1    0    0  501    0 +0.0000000000e+00 +0.0000000000e+00 +1.0175012596e+02 1.0175805144e+02 1.2700000000e+00 0.0000e+00 1.0000e+00
       -4 -1    0    0    0  501 -0.0000000000e+00 -0.0000000000e+00 -6.5184750764e+02 6.5184874481e+02 1.2700000000e+00 0.0000e+00 1.0000e+00
      -13  1    1    2    0    0 +2.3732854059e+01 +7.2933690122e+01 -4.6704149674e+01 8.9798999311e+01 1.0566000000e-01 0.0000e+00 -1.0000e+00
       13  1    1    2    0    0 -7.2007289048e+00 -7.4789291662e+01 -2.9877907993e+01 8.0857833227e+01 1.0566000000e-01 0.0000e+00 1.0000e+00
    10002  1    1    2    0    0 +1.1608357635e+02 -2.2552379202e+01 -1.3650016956e+02 2.0643716428e+02 1.0000000000e+02 0.0000e+00 0.0000e+00
   -10002  1    1    2    0    0 -1.3261570150e+02 +2.4407980742e+01 -3.3701515445e+02 3.7651279944e+02 1.0000000000e+02 0.0000e+00 0.0000e+00
<mgrwt>
<rscale>  0 0.51508841E+03</rscale>
<asrwt>0</asrwt>
<pdfrwt beam="1">  1        4 0.25438679E-01 0.51508841E+03</pdfrwt>
<pdfrwt beam="2">  1       -4 0.16296301E+00 0.51508841E+03</pdfrwt>
<totfact> 0.69089033E+00</totfact>
</mgrwt>
</event>
<event>
 6      1 +2.6141198e-09 4.36153400e+02 7.81860800e-03 1.03193400e-01
       -4 -1    0    0    0  501 -0.0000000000e+00 +0.0000000000e+00 +9.6750970636e+02 9.6751053989e+02 1.2700000000e+00 0.0000e+00 1.0000e+00
        4 -1    0    0  501    0 +0.0000000000e+00 -0.0000000000e+00 -4.9145441363e+01 4.9161848081e+01 1.2700000000e+00 0.0000e+00 1.0000e+00
      -13  1    1    2    0    0 +1.0107222536e+02 +5.6090659629e+01 +3.8177600628e+02 3.9889182365e+02 1.0566000000e-01 0.0000e+00 -1.0000e+00
       13  1    1    2    0    0 -1.8435164968e+01 +5.2551957018e+00 +5.9226750999e+01 6.2251840031e+01 1.0566000000e-01 0.0000e+00 1.0000e+00
    10002  1    1    2    0    0 -1.6871569981e+00 -1.0481871745e+02 +2.0300625770e+02 2.4940198614e+02 1.0000000000e+02 0.0000e+00 0.0000e+00
   -10002  1    1    2    0    0 -8.0949903389e+01 +4.3472862120e+01 +2.7435525002e+02 3.0612673815e+02 1.0000000000e+02 0.0000e+00 0.0000e+00
<mgrwt>
<rscale>  0 0.43615344E+03</rscale>
<asrwt>0</asrwt>
<pdfrwt beam="1">  1        4 0.12288515E-01 0.43615344E+03</pdfrwt>
<pdfrwt beam="2">  1       -4 0.24187960E+00 0.43615344E+03</pdfrwt>
<totfact> 0.79026832E+00</totfact>
</mgrwt>
</event>
<event>
 6      1 +2.6141198e-09 9.15334700e+02 7.81860800e-03 9.40661300e-02
        4 -1    0    0  501    0 +0.0000000000e+00 +0.0000000000e+00 +4.2664195531e+02 4.2664384553e+02 1.2700000000e+00 0.0000e+00 -1.0000e+00
       -4 -1    0    0    0  501 -0.0000000000e+00 -0.0000000000e+00 -4.9094515432e+02 4.9094679696e+02 1.2700000000e+00 0.0000e+00 -1.0000e+00
      -13  1    1    2    0    0 +5.0540097698e+01 +1.3138104455e+01 -1.0232500786e+01 5.3213029423e+01 1.0566000000e-01 0.0000e+00 -1.0000e+00
       13  1    1    2    0    0 -3.4261395163e+01 +7.4252538651e+01 +2.0475863457e+01 8.4300384595e+01 1.0566000000e-01 0.0000e+00 1.0000e+00
    10002  1    1    2    0    0 -1.9890588011e+02 -2.8037206133e+02 +1.7826214344e+02 3.9993678713e+02 1.0000000000e+02 0.0000e+00 0.0000e+00
   -10002  1    1    2    0    0 +1.8262717757e+02 +1.9298141822e+02 -2.5280870512e+02 3.8014044135e+02 1.0000000000e+02 0.0000e+00 0.0000e+00
<mgrwt>
<rscale>  0 0.91533474E+03</rscale>
<asrwt>0</asrwt>
<pdfrwt beam="1">  1        4 0.10666093E+00 0.91533474E+03</pdfrwt>
<pdfrwt beam="2">  1       -4 0.12273673E+00 0.91533474E+03</pdfrwt>
<totfact> 0.68923240E-01</totfact>
</mgrwt>
</event>
<event>
 6      1 +2.6141198e-09 4.18735700e+02 7.81860800e-03 1.03747900e-01
       -4 -1    0    0    0  501 -0.0000000000e+00 +0.0000000000e+00 +1.7537328318e+02 1.7537788159e+02 1.2700000000e+00 0.0000e+00 -1.0000e+00
        4 -1    0    0  501    0 +0.0000000000e+00 -0.0000000000e+00 -2.4994246140e+02 2.4994568792e+02 1.2700000000e+00 0.0000e+00 -1.0000e+00
      -13  1    1    2    0    0 -1.2852950440e+01 +2.6191959060e+01 -1.3368678254e+00 2.9206427958e+01 1.0566000000e-01 0.0000e+00 -1.0000e+00
       13  1    1    2    0    0 +6.6507969574e+00 -7.7126331280e+01 -1.4756756732e+01 7.8806580374e+01 1.0566000000e-01 0.0000e+00 1.0000e+00
    10002  1    1    2    0    0 -6.4874188359e+01 +2.6961860806e+01 -1.2574875308e+02 1.7535207770e+02 1.0000000000e+02 0.0000e+00 0.0000e+00
   -10002  1    1    2    0    0 +7.1076341842e+01 +2.3972511414e+01 +6.7273199412e+01 1.4195848348e+02 1.0000000000e+02 0.0000e+00 0.0000e+00
<mgrwt>
<rscale>  0 0.41873569E+03</rscale>
<asrwt>0</asrwt>
<pdfrwt beam="1">  1        4 0.62486593E-01 0.41873569E+03</pdfrwt>
<pdfrwt beam="2">  1       -4 0.43844299E-01 0.41873569E+03</pdfrwt>
<totfact> 0.23348896E+01</totfact>
</mgrwt>
</event>
<event>
 6      1 +2.6141198e-09 5.03716100e+02 7.81860800e-03 1.01281300e-01
        1 -1    0    0  501    0 +0.0000000000e+00 +0.0000000000e+00 +2.0330738005e+02 2.0330738011e+02 5.0400000000e-03 0.0000e+00 1.0000e+00
       -1 -1    0    0    0  501 -0.0000000000e+00 -0.0000000000e+00 -3.1200288063e+02 3.1200288067e+02 5.0400000000e-03 0.0000e+00 1.0000e+00
      -13  1    1    2    0    0 -2.8815212267e+01 +8.8260415855e+01 +1.1854039088e+01 9.3598861487e+01 1.0566000000e-01 0.0000e+00 -1.0000e+00
       13  1    1    2    0    0 +1.0583319944e+01 -2.0536653414e+01 +2.1200245224e+01 3.1356376642e+01 1.0566000000e-01 0.0000e+00 1.0000e+00
    10002  1    1    2    0    0 +1.2667131274e+02 +4.7537646208e+00 -1.5711467086e+02 2.2528479653e+02 1.0000000000e+02 0.0000e+00 0.0000e+00
   -10002  1    1    2    0    0 -1.0843942042e+02 -7.2477527062e+01 +1.5364885959e+01 1.6507022612e+02 1.0000000000e+02 0.0000e+00 0.0000e+00
<mgrwt>
<rscale>  0 0.50371614E+03</rscale>
<asrwt>0</asrwt>
<pdfrwt beam="1">  1        1 0.50826845E-01 0.50371614E+03</pdfrwt>
<pdfrwt beam="2">  1       -1 0.78000720E-01 0.50371614E+03</pdfrwt>
<totfact> 0.13129867E+02</totfact>
</mgrwt>
</event>
<event>
 6      1 +2.6141198e-09 4.07064500e+02 7.81860800e-03 1.04136100e-01
       -4 -1    0    0    0  501 -0.0000000000e+00 +0.0000000000e+00 +7.9912109761e+01 7.9922200836e+01 1.2700000000e+00 0.0000e+00 1.0000e+00
        4 -1    0    0  501    0 +0.0000000000e+00 -0.0000000000e+00 -5.1834319741e+02 5.1834475323e+02 1.2700000000e+00 0.0000e+00 1.0000e+00
      -13  1    1    2    0    0 -2.5723115196e+01 +1.3733746837e+01 -1.0708754493e+02 1.1098670146e+02 1.0566000000e-01 0.0000e+00 1.0000e+00
       13  1    1    2    0    0 +5.0837225335e+01 -3.3869434600e+01 -4.2797852370e+01 7.4587059276e+01 1.0566000000e-01 0.0000e+00 -1.0000e+00
    10002  1    1    2    0    0 +2.0468889516e+01 +7.5987122128e+01 -2.5491434791e+02 2.8491111410e+02 1.0000000000e+02 0.0000e+00 0.0000e+00
   -10002  1    1    2    0    0 -4.5582999655e+01 -5.5851434365e+01 -3.3631342438e+01 1.2778207923e+02 1.0000000000e+02 0.0000e+00 0.0000e+00
<mgrwt>
<rscale>  0 0.40706453E+03</rscale>
<asrwt>0</asrwt>
<pdfrwt beam="1">  1        4 0.12958725E+00 0.40706453E+03</pdfrwt>
<pdfrwt beam="2">  1       -4 0.19979485E-01 0.40706453E+03</pdfrwt>
<totfact> 0.19505608E+01</totfact>
</mgrwt>
</event>
<event>
 6      1 +2.6141198e-09 9.35215200e+02 7.81860800e-03 9.38260100e-02
       -4 -1    0    0    0  501 -0.0000000000e+00 +0.0000000000e+00 +1.1791844305e+03 1.1791851144e+03 1.2700000000e+00 0.0000e+00 1.0000e+00
        4 -1    0    0  501    0 +0.0000000000e+00 -0.0000000000e+00 -1.8542768293e+02 1.8543203201e+02 1.2700000000e+00 0.0000e+00 1.0000e+00
      -13  1    1    2    0    0 +3.1363917731e+00 +2.9790965331e+01 +1.4034943206e+02 1.4351067143e+02 1.0566000000e-01 0.0000e+00 1.0000e+00
       13  1    1    2    0    0 +4.7121665964e+01 -4.6673814422e+01 +6.9364348962e+01 9.5970414331e+01 1.0566000000e-01 0.0000e+00 -1.0000e+00
    10002  1    1    2    0    0 +1.1689462087e+02 -8.5227576119e+01 -1.0800299148e+02 2.0638008210e+02 1.0000000000e+02 0.0000e+00 0.0000e+00
   -10002  1    1    2    0    0 -1.6715267861e+02 +1.0211042521e+02 +8.9204595801e+02 9.1875597854e+02 1.0000000000e+02 0.0000e+00 0.0000e+00
<mgrwt>
<rscale>  0 0.93521521E+03</rscale>
<asrwt>0</asrwt>
<pdfrwt beam="1">  1        4 0.46357551E-01 0.93521521E+03</pdfrwt>
<pdfrwt beam="2">  1       -4 0.29479673E+00 0.93521521E+03</pdfrwt>
<totfact> 0.29956737E-01</totfact>
</mgrwt>
</event>
<event>
 6      1 +2.6141198e-09 4.46841600e+02 7.81860800e-03 1.02866800e-01
        3 -1    0    0  501    0 +0.0000000000e+00 +0.0000000000e+00 +4.5120452265e+01 4.5120565306e+01 1.0100000000e-01 0.0000e+00 1.0000e+00
       -3 -1    0    0    0  501 -0.0000000000e+00 -0.0000000000e+00 -1.1063006391e+03 1.1063006437e+03 1.0100000000e-01 0.0000e+00 1.0000e+00
      -13  1    1    2    0    0 -2.6951731914e+00 -2.3778532702e+01 +4.7377742617e+00 2.4395496408e+01 1.0566000000e-01 0.0000e+00 -1.0000e+00
       13  1    1    2    0    0 +1.4573375766e+01 +2.3950697696e+01 -1.6863482306e+02 1.7094950691e+02 1.0566000000e-01 0.0000e+00 1.0000e+00
    10002  1    1    2    0    0 -1.0861011538e+02 +1.8862904659e+01 -6.8889471024e+02 7.0478925087e+02 1.0000000000e+02 0.0000e+00 0.0000e+00
   -10002  1    1    2    0    0 +9.6731912807e+01 -1.9035069652e+01 -2.0838842783e+02 2.5128695486e+02 1.0000000000e+02 0.0000e+00 0.0000e+00
<mgrwt>
<rscale>  0 0.44684160E+03</rscale>
<asrwt>0</asrwt>
<pdfrwt beam="1">  1        3 0.11280131E-01 0.44684160E+03</pdfrwt>
<pdfrwt beam="2">  1       -3 0.27657509E+00 0.44684160E+03</pdfrwt>
<totfact> 0.87574503E+00</totfact>
</mgrwt>
</event>
<event>
 6      1 +2.6141198e-09 3.62729700e+02 7.81860800e-03 1.05750800e-01
        4 -1    0    0  501    0 +0.0000000000e+00 +0.0000000000e+00 +1.2717734058e+02 1.2718368156e+02 1.2700000000e+00 0.0000e+00 1.0000e+00
       -4 -1    0    0    0  501 -0.0000000000e+00 -0.0000000000e+00 -2.5862613581e+02 2.5862925400e+02 1.2700000000e+00 0.0000e+00 1.0000e+00
      -13  1    1    2    0    0 +2.6308610273e+01 +4.1357392083e+01 -4.2430807747e+01 6.4830251152e+01 1.0566000000e-01 0.0000e+00 -1.0000e+00
       13  1    1    2    0    0 -2.9590609379e+01 +1.8166915803e+01 +3.4895366457e+01 4.9227418756e+01 1.0566000000e-01 0.0000e+00 1.0000e+00
    10002  1    1    2    0    0 -1.0343605689e+01 -7.0305156270e+01 -1.1779174474e+02 1.7007263244e+02 1.0000000000e+02 0.0000e+00 0.0000e+00
   -10002  1    1    2    0    0 +1.3625604795e+01 +1.0780848385e+01 -6.1216092053e+00 1.0168263321e+02 1.0000000000e+02 0.0000e+00 0.0000e+00
<mgrwt>
<rscale>  0 0.36272970E+03</rscale>
<asrwt>0</asrwt>
<pdfrwt beam="1">  1        4 0.31795518E-01 0.36272970E+03</pdfrwt>
<pdfrwt beam="2">  1       -4 0.64657716E-01 0.36272970E+03</pdfrwt>
<totfact> 0.40602915E+01</totfact>
</mgrwt>
</event>
<event>
 6      1 +2.6141198e-09 7.71216500e+02 7.81860800e-03 9.60264100e-02
        4 -1    0    0  501    0 +0.0000000000e+00 +0.0000000000e+00 +2.1466096546e+02 2.1466472228e+02 1.2700000000e+00 0.0000e+00 1.0000e+00
       -4 -1    0    0    0  501 -0.0000000000e+00 -0.0000000000e+00 -6.9268066264e+02 6.9268182689e+02 1.2700000000e+00 0.0000e+00 1.0000e+00
      -13  1    1    2    0    0 +5.2640277195e+01 -1.5682426582e+01 +1.8168674420e+01 5.7853687704e+01 1.0566000000e-01 0.0000e+00 1.0000e+00
       13  1    1    2    0    0 -3.5594671376e+01 +1.3954083582e+01 -1.8897701956e+01 4.2647759405e+01 1.0566000000e-01 0.0000e+00 -1.0000e+00
    10002  1    1    2    0    0 -8.9069136552e+01 -2.6042965894e+02 -4.1926714211e+02 5.1141162950e+02 1.0000000000e+02 0.0000e+00 0.0000e+00
   -10002  1    1    2    0    0 +7.2023530734e+01 +2.6215800194e+02 -5.8023527540e+01 2.9543347256e+02 1.0000000000e+02 0.0000e+00 0.0000e+00
<mgrwt>
<rscale>  0 0.77121653E+03</rscale>
<asrwt>0</asrwt>
<pdfrwt beam="1">  1        4 0.53665858E-01 0.77121653E+03</pdfrwt>
<pdfrwt beam="2">  1       -4 0.17317078E+00 0.77121653E+03</pdfrwt>
<totfact> 0.13160181E+00</totfact>
</mgrwt>
</event>
<event>
 6      1 +2.6141198e-09 4.78426900e+02 7.81860800e-03 1.01956800e-01
       -4 -1    0    0    0  501 -0.0000000000e+00 +0.0000000000e+00 +5.3128756673e+02 5.3128908464e+02 1.2700000000e+00 0.0000e+00 -1.0000e+00
        4 -1    0    0  501    0 +0.0000000000e+00 -0.0000000000e+00 -1.0770097473e+02 1.0770846234e+02 1.2700000000e+00 0.0000e+00 -1.0000e+00
      -13  1    1    2    0    0 -3.5695151053e+01 -2.3312327366e+01 -1.1143008321e+01 4.4065703381e+01 1.0566000000e-01 0.0000e+00 1.0000e+00
       13  1    1    2    0    0 +1.8774637323e+01 +5.5232707255e+01 +9.9399588305e+00 5.9177300571e+01 1.0566000000e-01 0.0000e+00 -1.0000e+00
    10002  1    1    2    0    0 +1.1838585388e+01 -4.5053409753e+01 +4.2044244494e+02 4.3467437392e+02 1.0000000000e+02 0.0000e+00 0.0000e+00
   -10002  1    1    2    0    0 +5.0819283421e+00 +1.3133029865e+01 +4.3471965450e+00 1.0108016911e+02 1.0000000000e+02 0.0000e+00 0.0000e+00
<mgrwt>
<rscale>  0 0.47842686E+03</rscale>
<asrwt>0</asrwt>
<pdfrwt beam="1">  1        4 0.26926370E-01 0.47842686E+03</pdfrwt>
<pdfrwt beam="2">  1       -4 0.13282302E+00 0.47842686E+03</pdfrwt>
<totfact> 0.10582891E+01</totfact>
</mgrwt>
</event>
<event>
 6      1 +2.6141198e-09 4.05692900e+02 7.81860800e-03 1.04182600e-01
        4 -1    0    0  501    0 +0.0000000000e+00 +0.0000000000e+00 +2.2545343046e+02 2.2545700744e+02 1.2700000000e+00 0.0000e+00 1.0000e+00
       -4 -1    0    0    0  501 -0.0000000000e+00 -0.0000000000e+00 -1.8249915096e+02 1.8250356983e+02 1.2700000000e+00 0.0000e+00 1.0000e+00
      -13  1    1    2    0    0 -3.9844074604e+01 +1.2522833854e+00 -2.2740241354e+01 4.5893880154e+01 1.0566000000e-01 0.0000e+00 -1.0000e+00
       13  1    1    2    0    0 +2.4074216148e+01 -1.2197071944e+01 +5.5687152877e+01 6.1882199434e+01 1.0566000000e-01 0.0000e+00 1.0000e+00
    10002  1    1    2    0    0 -6.1984374895e+01 +9.1302172139e+01 -7.7631196065e+00 1.4912550216e+02 1.0000000000e+02 0.0000e+00 0.0000e+00
   -10002  1    1    2    0    0 +7.7754233351e+01 -8.0357383580e+01 +1.7770487583e+01 1.5105899552e+02 1.0000000000e+02 0.0000e+00 0.0000e+00
<mgrwt>
<rscale>  0 0.40569294E+03</rscale>
<asrwt>0</asrwt>
<pdfrwt beam="1">  1        4 0.56364357E-01 0.40569294E+03</pdfrwt>
<pdfrwt beam="2">  1       -4 0.45625788E-01 0.40569294E+03</pdfrwt>
<totfact> 0.26780302E+01</totfact>
</mgrwt>
</event>
<event>
 6      1 +2.6141198e-09 3.70284000e+02 7.81860800e-03 1.05458400e-01
        4 -1    0    0  501    0 +0.0000000000e+00 +0.0000000000e+00 +3.4235040577e+01 3.4258588753e+01 1.2700000000e+00 0.0000e+00 1.0000e+00
       -4 -1    0    0    0  501 -0.0000000000e+00 -0.0000000000e+00 -1.0008738998e+03 1.0008747056e+03 1.2700000000e+00 0.0000e+00 1.0000e+00
      -13  1    1    2    0    0 -3.6028609898e+01 -6.0362433903e+01 -1.4412061416e+02 1.6035101106e+02 1.0566000000e-01 0.0000e+00 -1.0000e+00
       13  1    1    2    0    0 +9.2203969551e+00 +4.0135609455e+01 -8.5984467902e+01 9.5337415272e+01 1.0566000000e-01 0.0000e+00 1.0000e+00
    10002  1    1    2    0    0 +1.6992881345e+01 +1.9508544865e+01 -6.0587039530e+02 6.1461229831e+02 1.0000000000e+02 0.0000e+00 0.0000e+00
   -10002  1    1    2    0    0 +9.8153315983e+00 +7.1827958364e-01 -1.3066338188e+02 1.6483256967e+02 1.0000000000e+02 0.0000e+00 0.0000e+00
<mgrwt>
<rscale>  0 0.37028402E+03</rscale>
<asrwt>0</asrwt>
<pdfrwt beam="1">  1        4 0.85618077E-02 0.37028402E+03</pdfrwt>
<pdfrwt beam="2">  1       -4 0.25022142E+00 0.37028402E+03</pdfrwt>
<totfact> 0.13051923E+01</totfact>
</mgrwt>
</event>
<event>
 6      1 +2.6141198e-09 3.95502900e+02 7.81860800e-03 1.04534800e-01
       -4 -1    0    0    0  501 -0.0000000000e+00 +0.0000000000e+00 +4.7400229988e+02 4.7400400124e+02 1.2700000000e+00 0.0000e+00 -1.0000e+00
        4 -1    0    0  501    0 +0.0000000000e+00 -0.0000000000e+00 -8.2494213852e+01 8.2503989110e+01 1.2700000000e+00 0.0000e+00 -1.0000e+00
      -13  1    1    2    0    0 +1.6093049548e+01 +3.0389208075e+01 -1.1489524653e+01 3.6256179500e+01 1.0566000000e-01 0.0000e+00 1.0000e+00
       13  1    1    2    0    0 -3.5046290068e+01 +2.7555810831e+01 +9.8119393225e+01 1.0777287065e+02 1.0566000000e-01 0.0000e+00 -1.0000e+00
    10002  1    1    2    0    0 -2.0818434285e+01 -1.1677137789e+02 +1.6684984130e+02 2.2783290246e+02 1.0000000000e+02 0.0000e+00 0.0000e+00
   -10002  1    1    2    0    0 +3.9771674805e+01 +5.8826358984e+01 +1.3802837615e+02 1.8464603773e+02 1.0000000000e+02 0.0000e+00 0.0000e+00
<mgrwt>
<rscale>  0 0.39550292E+03</rscale>
<asrwt>0</asrwt>
<pdfrwt beam="1">  1        4 0.20624988E-01 0.39550292E+03</pdfrwt>
<pdfrwt beam="2">  1       -4 0.11850201E+00 0.39550292E+03</pdfrwt>
<totfact> 0.22942833E+01</totfact>
</mgrwt>
</event>
<event>
 6      1 +2.6141198e-09 3.88605800e+02 7.81860800e-03 1.04779800e-01
       -4 -1    0    0    0  501 -0.0000000000e+00 +0.0000000000e+00 +4.4017565222e+02 4.4017748432e+02 1.2700000000e+00 0.0000e+00 -1.0000e+00
        4 -1    0    0  501    0 +0.0000000000e+00 -0.0000000000e+00 -8.5762728034e+01 8.5772130788e+01 1.2700000000e+00 0.0000e+00 -1.0000e+00
      -13  1    1    2    0    0 -6.9010940601e+01 -3.3598428538e+01 +4.5546000361e+01 8.9251406912e+01 1.0566000000e-01 0.0000e+00 1.0000e+00
       13  1    1    2    0    0 +1.3019611144e+01 +8.6460299420e+00 +9.3453409575e+01 9.4751332621e+01 1.0566000000e-01 0.0000e+00 -1.0000e+00
    10002  1    1    2    0    0 -1.7818147184e+01 +3.6269590912e+01 +1.8395017163e+02 2.1323844690e+02 1.0000000000e+02 0.0000e+00 0.0000e+00
   -10002  1    1    2    0    0 +7.3809476642e+01 -1.1317192316e+01 +3.1463342618e+01 1.2870842868e+02 1.0000000000e+02 0.0000e+00 0.0000e+00
<mgrwt>
<rscale>  0 0.38860581E+03</rscale>
<asrwt>0</asrwt>
<pdfrwt beam="1">  1        4 0.21442087E-01 0.38860581E+03</pdfrwt>
<pdfrwt beam="2">  1       -4 0.11004531E+00 0.38860581E+03</pdfrwt>
<totfact> 0.25531562E+01</totfact>
</mgrwt>
</event>
<event>
 6      1 +2.6141198e-09 5.61540300e+02 7.81860800e-03 9.98857500e-02
       -4 -1    0    0    0  501 -0.0000000000e+00 +0.0000000000e+00 +9.6523803488e+01 9.6532158060e+01 1.2700000000e+00 0.0000e+00 1.0000e+00
        4 -1    0    0  501    0 +0.0000000000e+00 -0.0000000000e+00 -8.1666507277e+02 8.1666606026e+02 1.2700000000e+00 0.0000e+00 1.0000e+00
      -13  1    1    2    0    0 +1.0923271108e+01 -3.2717670845e+01 +1.9443022775e+01 3.9595531767e+01 1.0566000000e-01 0.0000e+00 1.0000e+00
       13  1    1    2    0    0 -1.6670605867e+01 +4.7825312963e+01 -3.0043022722e+01 5.8887724003e+01 1.0566000000e-01 0.0000e+00 -1.0000e+00
    10002  1    1    2    0    0 -9.6571560705e+01 +4.2904335524e+01 -6.1872498204e+02 6.3560007217e+02 1.0000000000e+02 0.0000e+00 0.0000e+00
   -10002  1    1    2    0    0 +1.0231889546e+02 -5.8011977641e+01 -9.0816287302e+01 1.7911489039e+02 1.0000000000e+02 0.0000e+00 0.0000e+00
<mgrwt>
<rscale>  0 0.56154033E+03</rscale>
<asrwt>0</asrwt>
<pdfrwt beam="1">  1        4 0.20416742E+00 0.56154033E+03</pdfrwt>
<pdfrwt beam="2">  1       -4 0.24132121E-01 0.56154033E+03</pdfrwt>
<totfact> 0.40090982E+00</totfact>
</mgrwt>
</event>
<event>
 6      1 +2.6141198e-09 3.71026400e+02 7.81860800e-03 1.05430100e-01
       -4 -1    0    0    0  501 -0.0000000000e+00 +0.0000000000e+00 +5.2886618322e+02 5.2886770809e+02 1.2700000000e+00 0.0000e+00 -1.0000e+00
        4 -1    0    0  501    0 +0.0000000000e+00 -0.0000000000e+00 -6.5065645847e+01 6.5078039073e+01 1.2700000000e+00 0.0000e+00 -1.0000e+00
      -13  1    1    2    0    0 -3.3509537917e+01 +2.2686679476e+00 +1.0298349279e+02 1.0832195962e+02 1.0566000000e-01 0.0000e+00 -1.0000e+00
       13  1    1    2    0    0 -1.4289442172e+01 -3.0836768674e+00 -2.4141033345e+01 2.8222293946e+01 1.0566000000e-01 0.0000e+00 1.0000e+00
    10002  1    1    2    0    0 +2.7642424159e+01 -5.7809861394e+01 +1.2702405289e+02 1.7389995314e+02 1.0000000000e+02 0.0000e+00 0.0000e+00
   -10002  1    1    2    0    0 +2.0156555930e+01 +5.8624870314e+01 +2.5793402504e+02 2.8350154045e+02 1.0000000000e+02 0.0000e+00 0.0000e+00
<mgrwt>
<rscale>  0 0.37102643E+03</rscale>
<asrwt>0</asrwt>
<pdfrwt beam="1">  1        4 0.16268152E-01 0.37102643E+03</pdfrwt>
<pdfrwt beam="2">  1       -4 0.13221828E+00 0.37102643E+03</pdfrwt>
<totfact> 0.26746907E+01</totfact>
</mgrwt>
</event>
<event>
 6      1 +2.6141198e-09 5.80834800e+02 7.81860800e-03 9.94598500e-02
        4 -1    0    0  501    0 +0.0000000000e+00 +0.0000000000e+00 +1.0798380620e+03 1.0798388088e+03 1.2700000000e+00 0.0000e+00 -1.0000e+00
       -4 -1    0    0    0  501 -0.0000000000e+00 -0.0000000000e+00 -7.8100455741e+01 7.8110780863e+01 1.2700000000e+00 0.0000e+00 -1.0000e+00
      -13  1    1    2    0    0 +4.7614118670e+00 +4.7547789107e+01 +1.8059412004e+02 1.8680928952e+02 1.0566000000e-01 0.0000e+00 -1.0000e+00
       13  1    1    2    0    0 -1.5133983130e+00 +2.0386977998e+01 -1.6482984587e+01 2.6260601503e+01 1.0566000000e-01 0.0000e+00 1.0000e+00
    10002  1    1    2    0    0 +2.2828579782e+01 -8.9544623139e+01 +8.2771150249e+02 8.3883592850e+02 1.0000000000e+02 0.0000e+00 0.0000e+00
   -10002  1    1    2    0    0 -2.6076593336e+01 +2.1609856034e+01 +9.9149683299e+00 1.0604377018e+02 1.0000000000e+02 0.0000e+00 0.0000e+00
<mgrwt>
<rscale>  0 0.58083476E+03</rscale>
<asrwt>0</asrwt>
<pdfrwt beam="1">  1        4 0.26996090E+00 0.58083476E+03</pdfrwt>
<pdfrwt beam="2">  1       -4 0.19526498E-01 0.58083476E+03</pdfrwt>
<totfact> 0.23332049E+00</totfact>
</mgrwt>
</event>
<event>
 6      1 +2.6141198e-09 4.48046900e+02 7.81860800e-03 1.02830600e-01
        4 -1    0    0  501    0 +0.0000000000e+00 +0.0000000000e+00 +1.5842261863e+02 1.5842770905e+02 1.2700000000e+00 0.0000e+00 1.0000e+00
       -4 -1    0    0    0  501 -0.0000000000e+00 -0.0000000000e+00 -3.1677732946e+02 3.1677987525e+02 1.2700000000e+00 0.0000e+00 1.0000e+00
      -13  1    1    2    0    0 -3.1525969797e+01 -2.3171611118e+00 -2.0517373626e+01 3.7685936260e+01 1.0566000000e-01 0.0000e+00 -1.0000e+00
       13  1    1    2    0    0 +5.4746856311e+01 +3.0325501810e+01 -7.6382654567e+01 9.8748040075e+01 1.0566000000e-01 0.0000e+00 1.0000e+00
    10002  1    1    2    0    0 -3.8587937752e+01 +4.6059336191e+00 +9.9210076559e+01 1.4612625656e+02 1.0000000000e+02 0.0000e+00 0.0000e+00
   -10002  1    1    2    0    0 +1.5367051239e+01 -3.2614274317e+01 -1.6066475920e+02 1.9264735140e+02 1.0000000000e+02 0.0000e+00 0.0000e+00
<mgrwt>
<rscale>  0 0.44804691E+03</rscale>
<asrwt>0</asrwt>
<pdfrwt beam="1">  1        4 0.39606610E-01 0.44804691E+03</pdfrwt>
<pdfrwt beam="2">  1       -4 0.79195286E-01 0.44804691E+03</pdfrwt>
<totfact> 0.17065279E+01</totfact>
</mgrwt>
</event>
<event>
 6      1 +2.6141198e-09 5.17321700e+02 7.81860800e-03 1.00935400e-01
       -4 -1    0    0    0  501 -0.0000000000e+00 +0.0000000000e+00 +2.7942726127e+02 2.7943014733e+02 1.2700000000e+00 0.0000e+00 1.0000e+00
        4 -1    0    0  501    0 +0.0000000000e+00 -0.0000000000e+00 -2.3943194913e+02 2.3943531729e+02 1.2700000000e+00 0.0000e+00 1.0000e+00
      -13  1    1    2    0    0 +4.4210482979e+01 -1.1414502959e+01 -3.9019761231e+01 6.0061723366e+01 1.0566000000e-01 0.0000e+00 1.0000e+00
       13  1    1    2    0    0 +9.6696475497e+00 +5.5372029958e+01 +2.7459966534e+01 6.2558969873e+01 1.0566000000e-01 0.0000e+00 -1.0000e+00
    10002  1    1    2    0    0 +6.3726566588e+01 +5.0542473380e+01 +1.4378010366e+02 1.9310187755e+02 1.0000000000e+02 0.0000e+00 0.0000e+00
   -10002  1    1    2    0    0 -1.1760669712e+02 -9.4500000378e+01 -9.2224996824e+01 2.0314289384e+02 1.0000000000e+02 0.0000e+00 0.0000e+00
<mgrwt>
<rscale>  0 0.51732170E+03</rscale>
<asrwt>0</asrwt>
<pdfrwt beam="1">  1        4 0.59858769E-01 0.51732170E+03</pdfrwt>
<pdfrwt beam="2">  1       -4 0.69857597E-01 0.51732170E+03</pdfrwt>
<totfact> 0.96544397E+00</totfact>
</mgrwt>
</event>
<event>
 6      1 +2.6141198e-09 5.71271800e+02 7.81860800e-03 9.96686800e-02
       -4 -1    0    0    0  501 -0.0000000000e+00 +0.0000000000e+00 +1.0322496622e+03 1.0322504434e+03 1.2700000000e+00 0.0000e+00 -1.0000e+00
        4 -1    0    0  501    0 +0.0000000000e+00 -0.0000000000e+00 -7.9032965386e+01 7.9043168697e+01 1.2700000000e+00 0.0000e+00 -1.0000e+00
      -13  1    1    2    0    0 +1.1397482029e+01 -7.4698143807e+01 +1.4199105694e+02 1.6084522592e+02 1.0566000000e-01 0.0000e+00 1.0000e+00
       13  1    1    2    0    0 +9.4379843355e+01 -2.8753084467e+01 +1.3547241656e+02 1.6759200909e+02 1.0566000000e-01 0.0000e+00 -1.0000e+00
    10002  1    1    2    0    0 -1.8182209057e+02 +1.3975725818e+02 +3.3681737035e+02 4.1956799783e+02 1.0000000000e+02 0.0000e+00 0.0000e+00
   -10002  1    1    2    0    0 +7.6044765190e+01 -3.6306029902e+01 +3.3893585293e+02 3.6328837928e+02 1.0000000000e+02 0.0000e+00 0.0000e+00
<mgrwt>
<rscale>  0 0.57127176E+03</rscale>
<asrwt>0</asrwt>
<pdfrwt beam="1">  1        4 0.19759615E-01 0.57127176E+03</pdfrwt>
<pdfrwt beam="2">  1       -4 0.25806379E+00 0.57127176E+03</pdfrwt>
<totfact> 0.26947494E+00</totfact>
</mgrwt>
</event>
<event>
 6      1 +2.6141198e-09 4.46793200e+02 7.81860800e-03 1.02868300e-01
        3 -1    0    0  501    0 +0.0000000000e+00 +0.0000000000e+00 +2.8999198372e+01 2.8999374256e+01 1.0100000000e-01 0.0000e+00 1.0000e+00
       -3 -1    0    0    0  501 -0.0000000000e+00 -0.0000000000e+00 -1.7209401755e+03 1.7209401784e+03 1.0100000000e-01 0.0000e+00 1.0000e+00
      -13  1    1    2    0    0 +1.2306443848e+01 +1.7780696359e+01 -5.1682538549e+01 5.6024081234e+01 1.0566000000e-01 0.0000e+00 1.0000e+00
       13  1    1    2    0    0 -5.9651894068e+01 +3.4406378189e+01 -3.4234388847e+02 3.4920122631e+02 1.0566000000e-01 0.0000e+00 -1.0000e+00
    10002  1    1    2    0    0 +1.4248290335e+02 +4.1690656405e+01 -7.9190340055e+02 8.1188083139e+02 1.0000000000e+02 0.0000e+00 0.0000e+00
   -10002  1    1    2    0    0 -9.5137453125e+01 -9.3877730954e+01 -5.0601114952e+02 5.3283341373e+02 1.0000000000e+02 0.0000e+00 0.0000e+00
<mgrwt>
<rscale>  0 0.44679321E+03</rscale>
<asrwt>0</asrwt>
<pdfrwt beam="1">  1        3 0.72498278E-02 0.44679321E+03</pdfrwt>
<pdfrwt beam="2">  1       -3 0.43023472E+00 0.44679321E+03</pdfrwt>
<totfact> 0.27075043E+00</totfact>
</mgrwt>
</event>
<event>
 6      1 +2.6141198e-09 3.95719700e+02 7.81860800e-03 1.04527200e-01
       -4 -1    0    0    0  501 -0.0000000000e+00 +0.0000000000e+00 +2.6102283160e+02 2.6102592116e+02 1.2700000000e+00 0.0000e+00 -1.0000e+00
        4 -1    0    0  501    0 +0.0000000000e+00 -0.0000000000e+00 -1.4997451429e+02 1.4997989145e+02 1.2700000000e+00 0.0000e+00 -1.0000e+00
      -13  1    1    2    0    0 +2.0982444677e+01 +1.4790931755e+01 +1.8795449756e+01 3.1816893977e+01 1.0566000000e-01 0.0000e+00 -1.0000e+00
       13  1    1    2    0    0 -6.6903913692e+01 +1.8515997714e+01 -3.5006088980e+01 7.7745824765e+01 1.0566000000e-01 0.0000e+00 1.0000e+00
    10002  1    1    2    0    0 +9.4458290928e+01 +2.1072076360e+00 +1.3064416166e+01 1.3819366128e+02 1.0000000000e+02 0.0000e+00 0.0000e+00
   -10002  1    1    2    0    0 -4.8536821913e+01 -3.5414137106e+01 +1.1419454037e+02 1.6324943258e+02 1.0000000000e+02 0.0000e+00 0.0000e+00
<mgrwt>
<rscale>  0 0.39571966E+03</rscale>
<asrwt>0</asrwt>
<pdfrwt beam="1">  1        4 0.37494687E-01 0.39571966E+03</pdfrwt>
<pdfrwt beam="2">  1       -4 0.65256766E-01 0.39571966E+03</pdfrwt>
<totfact> 0.28996544E+01</totfact>
</mgrwt>
</event>
<event>
 6      1 +2.6141198e-09 4.05348100e+02 7.81860800e-03 1.04194300e-01
       -4 -1    0    0    0  501 -0.0000000000e+00 +0.0000000000e+00 +2.6321585560e+02 2.6321891942e+02 1.2700000000e+00 0.0000e+00 -1.0000e+00
        4 -1    0    0  501    0 +0.0000000000e+00 -0.0000000000e+00 -1.5605081168e+02 1.5605597947e+02 1.2700000000e+00 0.0000e+00 -1.0000e+00
      -13  1    1    2    0    0 +1.2723272956e+01 -3.1184697491e+01 +2.8435062181e+01 4.4078690516e+01 1.0566000000e-01 0.0000e+00 1.0000e+00
       13  1    1    2    0    0 -3.9965342911e+01 -4.1093577006e+00 -5.5773028816e+01 6.8736870470e+01 1.0566000000e-01 0.0000e+00 -1.0000e+00
    10002  1    1    2    0    0 -4.6923873844e+01 -4.1994885752e+01 +1.8614635803e+01 1.1963245810e+02 1.0000000000e+02 0.0000e+00 0.0000e+00
   -10002  1    1    2    0    0 +7.4165943798e+01 +7.7288940944e+01 +1.1588837475e+02 1.8682687979e+02 1.0000000000e+02 0.0000e+00 0.0000e+00
<mgrwt>
<rscale>  0 0.40534811E+03</rscale>
<asrwt>0</asrwt>
<pdfrwt beam="1">  1        4 0.39013732E-01 0.40534811E+03</pdfrwt>
<pdfrwt beam="2">  1       -4 0.65804992E-01 0.40534811E+03</pdfrwt>
<totfact> 0.26354176E+01</totfact>
</mgrwt>
</event>
<event>
 6      1 +2.6141198e-09 5.72584500e+02 7.81860800e-03 9.96397600e-02
       -4 -1    0    0    0  501 -0.0000000000e+00 +0.0000000000e+00 +4.0831221725e+02 4.0831419232e+02 1.2700000000e+00 0.0000e+00 1.0000e+00
        4 -1    0    0  501    0 +0.0000000000e+00 -0.0000000000e+00 -2.0073225594e+02 2.0073627344e+02 1.2700000000e+00 0.0000e+00 1.0000e+00
      -13  1    1    2    0    0 +2.6925325569e+01 +9.4215965214e+01 -9.2042412926e+00 9.8419258685e+01 1.0566000000e-01 0.0000e+00 -1.0000e+00
       13  1    1    2    0    0 +4.3456375265e+01 -6.9845438230e+00 +9.7891943525e+00 4.5089687222e+01 1.0566000000e-01 0.0000e+00 1.0000e+00
    10002  1    1    2    0    0 +7.7652449427e+01 -1.1850201578e+02 +2.2411616550e+02 2.8337375723e+02 1.0000000000e+02 0.0000e+00 0.0000e+00
   -10002  1    1    2    0    0 -1.4803415026e+02 +3.1270594390e+01 -1.7121157257e+01 1.8216776263e+02 1.0000000000e+02 0.0000e+00 0.0000e+00
<mgrwt>
<rscale>  0 0.57258452E+03</rscale>
<asrwt>0</asrwt>
<pdfrwt beam="1">  1        4 0.50183813E-01 0.57258452E+03</pdfrwt>
<pdfrwt beam="2">  1       -4 0.10207880E+00 0.57258452E+03</pdfrwt>
<totfact> 0.58931401E+00</totfact>
</mgrwt>
</event>
<event>
 6      1 +2.6141198e-09 4.59625700e+02 7.81860800e-03 1.02489000e-01
       -4 -1    0    0    0  501 -0.0000000000e+00 +0.0000000000e+00 +2.0820074599e+02 2.0820461938e+02 1.2700000000e+00 0.0000e+00 1.0000e+00
        4 -1    0    0  501    0 +0.0000000000e+00 -0.0000000000e+00 -2.5366058587e+02 2.5366376510e+02 1.2700000000e+00 0.0000e+00 1.0000e+00
      -13  1    1    2    0    0 -3.8682682241e+01 +6.8924323590e+00 -2.0195683211e+01 4.4178414566e+01 1.0566000000e-01 0.0000e+00 1.0000e+00
       13  1    1    2    0    0 -1.8436485926e+01 +5.0592547877e+01 +7.5979180466e+01 9.3125490293e+01 1.0566000000e-01 0.0000e+00 -1.0000e+00
    10002  1    1    2    0    0 +1.1095096314e+01 +7.3470076449e+01 +2.2784989505e+00 1.2460395200e+02 1.0000000000e+02 0.0000e+00 0.0000e+00
   -10002  1    1    2    0    0 +4.6024071853e+01 -1.3095505669e+02 -1.0352183609e+02 1.9996052763e+02 1.0000000000e+02 0.0000e+00 0.0000e+00
<mgrwt>
<rscale>  0 0.45962573E+03</rscale>
<asrwt>0</asrwt>
<pdfrwt beam="1">  1        4 0.63416028E-01 0.45962573E+03</pdfrwt>
<pdfrwt beam="2">  1       -4 0.52051068E-01 0.45962573E+03</pdfrwt>
<totfact> 0.15957395E+01</totfact>
</mgrwt>
</event>
<event>
 6      1 +2.6141198e-09 6.05064100e+02 7.81860800e-03 9.89495500e-02
       -4 -1    0    0    0  501 -0.0000000000e+00 +0.0000000000e+00 +1.2998675661e+02 1.2999296056e+02 1.2700000000e+00 0.0000e+00 -1.0000e+00
        4 -1    0    0  501    0 +0.0000000000e+00 -0.0000000000e+00 -7.0409160171e+02 7.0409274709e+02 1.2700000000e+00 0.0000e+00 -1.0000e+00
      -13  1    1    2    0    0 -1.6368373536e+01 -4.0124814507e+01 +2.2848723979e+01 4.8989792232e+01 1.0566000000e-01 0.0000e+00 -1.0000e+00
       13  1    1    2    0    0 +3.0974344028e+01 +2.7876287454e+01 -3.3998227197e+01 5.3780926049e+01 1.0566000000e-01 0.0000e+00 1.0000e+00
    10002  1    1    2    0    0 +1.0182691720e+02 -1.5914666014e+02 -1.5892728099e+02 2.6637241063e+02 1.0000000000e+02 0.0000e+00 0.0000e+00
   -10002  1    1    2    0    0 -1.1643288770e+02 +1.7139518720e+02 -4.0402806089e+02 4.6494257873e+02 1.0000000000e+02 0.0000e+00 0.0000e+00
<mgrwt>
<rscale>  0 0.60506412E+03</rscale>
<asrwt>0</asrwt>
<pdfrwt beam="1">  1        4 0.17602381E+00 0.60506412E+03</pdfrwt>
<pdfrwt beam="2">  1       -4 0.32497610E-01 0.60506412E+03</pdfrwt>
<totfact> 0.34933739E+00</totfact>
</mgrwt>
</event>
<event>
 6      1 +2.6141198e-09 4.62253500e+02 7.81860800e-03 1.02413000e-01
        4 -1    0    0  501    0 +0.0000000000e+00 +0.0000000000e+00 +5.8591856372e+01 5.8605618614e+01 1.2700000000e+00 0.0000e+00 -1.0000e+00
       -4 -1    0    0    0  501 -0.0000000000e+00 -0.0000000000e+00 -9.1160235165e+02 9.1160323630e+02 1.2700000000e+00 0.0000e+00 -1.0000e+00
      -13  1    1    2    0    0 -4.9461663034e+01 -2.7443999364e+01 -8.1609708374e+01 9.9296449464e+01 1.0566000000e-01 0.0000e+00 -1.0000e+00
       13  1    1    2    0    0 +3.4428128745e+01 -2.7629206932e+01 -2.0496613301e+02 2.0966591514e+02 1.0566000000e-01 0.0000e+00 1.0000e+00
    10002  1    1    2    0    0 +8.4714586155e+01 -7.7556004960e+01 -1.8651864118e+02 2.4079181573e+02 1.0000000000e+02 0.0000e+00 0.0000e+00
   -10002  1    1    2    0    0 -6.9681051866e+01 +1.3262921126e+02 -3.7991601271e+02 4.2045467459e+02 1.0000000000e+02 0.0000e+00 0.0000e+00
<mgrwt>
<rscale>  0 0.46225352E+03</rscale>
<asrwt>0</asrwt>
<pdfrwt beam="1">  1        4 0.14649798E-01 0.46225352E+03</pdfrwt>
<pdfrwt beam="2">  1       -4 0.22790237E+00 0.46225352E+03</pdfrwt>
<totfact> 0.70631351E+00</totfact>
</mgrwt>
</event>
<event>
 6      1 +2.6141198e-09 4.73843600e+02 7.81860800e-03 1.02084100e-01
       -4 -1    0    0    0  501 -0.0000000000e+00 +0.0000000000e+00 +3.8596081371e+02 3.8596290316e+02 1.2700000000e+00 0.0000e+00 -1.0000e+00
        4 -1    0    0  501    0 +0.0000000000e+00 -0.0000000000e+00 -1.4542906283e+02 1.4543460804e+02 1.2700000000e+00 0.0000e+00 -1.0000e+00
      -13  1    1    2    0    0 -1.1885747519e+01 +2.7017609797e+01 +2.5815440283e+01 3.9213140072e+01 1.0566000000e-01 0.0000e+00 1.0000e+00
       13  1    1    2    0    0 -6.4625314984e+00 -9.1635754567e+01 +1.2147728231e+01 9.2663122620e+01 1.0566000000e-01 0.0000e+00 -1.0000e+00
    10002  1    1    2    0    0 -1.2493213385e+02 +2.9630348044e+01 +6.8734040736e+01 1.7666455204e+02 1.0000000000e+02 0.0000e+00 0.0000e+00
   -10002  1    1    2    0    0 +1.4328041286e+02 +3.4987796726e+01 +1.3383454162e+02 2.2285669647e+02 1.0000000000e+02 0.0000e+00 0.0000e+00
<mgrwt>
<rscale>  0 0.47384364E+03</rscale>
<asrwt>0</asrwt>
<pdfrwt beam="1">  1        4 0.36358220E-01 0.47384364E+03</pdfrwt>
<pdfrwt beam="2">  1       -4 0.96491157E-01 0.47384364E+03</pdfrwt>
<totfact> 0.12881660E+01</totfact>
</mgrwt>
</event>
<event>
 6      1 +2.6141198e-09 5.59656800e+02 7.81860800e-03 9.99283200e-02
        4 -1    0    0  501    0 +0.0000000000e+00 +0.0000000000e+00 +6.5511728681e+02 6.5511851781e+02 1.2700000000e+00 0.0000e+00 1.0000e+00
       -4 -1    0    0    0  501 -0.0000000000e+00 -0.0000000000e+00 -1.1952185644e+02 1.1952860355e+02 1.2700000000e+00 0.0000e+00 1.0000e+00
      -13  1    1    2    0    0 -2.4372644797e+01 -1.2720748859e+00 +2.4726713839e+01 3.4742848620e+01 1.0566000000e-01 0.0000e+00 -1.0000e+00
       13  1    1    2    0    0 +5.5279313254e+01 -1.4454000677e+00 -3.7548243171e+01 6.6841404716e+01 1.0566000000e-01 0.0000e+00 1.0000e+00
    10002  1    1    2    0    0 -9.3165331901e+01 -9.4018651917e+01 +8.7408540820e+01 1.8750877042e+02 1.0000000000e+02 0.0000e+00 0.0000e+00
   -10002  1    1    2    0    0 +6.2258663444e+01 +9.6736126871e+01 +4.6100841888e+02 4.8555409760e+02 1.0000000000e+02 0.0000e+00 0.0000e+00
<mgrwt>
<rscale>  0 0.55965677E+03</rscale>
<asrwt>0</asrwt>
<pdfrwt beam="1">  1        4 0.16378032E+00 0.55965677E+03</pdfrwt>
<pdfrwt beam="2">  1       -4 0.29881462E-01 0.55965677E+03</pdfrwt>
<totfact> 0.50182858E+00</totfact>
</mgrwt>
</event>
<event>
 6      1 +2.6141198e-09 5.13140100e+02 7.81860800e-03 1.01040500e-01
       -4 -1    0    0    0  501 -0.0000000000e+00 +0.0000000000e+00 +9.2696402797e+02 9.2696489796e+02 1.2700000000e+00 0.0000e+00 1.0000e+00
        4 -1    0    0  501    0 +0.0000000000e+00 -0.0000000000e+00 -7.1008240109e+01 7.1019596334e+01 1.2700000000e+00 0.0000e+00 1.0000e+00
      -13  1    1    2    0    0 +7.0666169380e+01 -1.7998178413e+01 +1.1783303882e+02 1.3857228482e+02 1.0566000000e-01 0.0000e+00 1.0000e+00
       13  1    1    2    0    0 +3.1522749053e+01 +7.9075350560e+01 +8.0197119680e+01 1.1695376840e+02 1.0566000000e-01 0.0000e+00 -1.0000e+00
    10002  1    1    2    0    0 +2.1758504136e+01 -1.1610568220e+02 +1.8963267511e+02 2.4477441331e+02 1.0000000000e+02 0.0000e+00 0.0000e+00
   -10002  1    1    2    0    0 -1.2394742257e+02 +5.5028510057e+01 +4.6829295426e+02 4.9768402776e+02 1.0000000000e+02 0.0000e+00 0.0000e+00
<mgrwt>
<rscale>  0 0.51314008E+03</rscale>
<asrwt>0</asrwt>
<pdfrwt beam="1">  1        4 0.17753589E-01 0.51314008E+03</pdfrwt>
<pdfrwt beam="2">  1       -4 0.23174253E+00 0.51314008E+03</pdfrwt>
<totfact> 0.47422486E+00</totfact>
</mgrwt>
</event>
<event>
 6      1 +2.6141198e-09 4.86669400e+02 7.81860800e-03 1.01731800e-01
       -4 -1    0    0    0  501 -0.0000000000e+00 +0.0000000000e+00 +1.8208668494e+02 1.8209111382e+02 1.2700000000e+00 0.0000e+00 1.0000e+00
        4 -1    0    0  501    0 +0.0000000000e+00 -0.0000000000e+00 -3.2517497232e+02 3.2517745236e+02 1.2700000000e+00 0.0000e+00 1.0000e+00
      -13  1    1    2    0    0 +4.2206518561e+01 -9.1191735325e+01 -1.6933203061e+00 1.0049975770e+02 1.0566000000e-01 0.0000e+00 1.0000e+00
       13  1    1    2    0    0 -1.7018386056e+01 +8.9648106028e+00 +2.7100008364e+01 3.3232738533e+01 1.0566000000e-01 0.0000e+00 -1.0000e+00
    10002  1    1    2    0    0 +3.3529433284e+01 +1.6004496542e+02 -1.1772394548e+02 2.2493897216e+02 1.0000000000e+02 0.0000e+00 0.0000e+00
   -10002  1    1    2    0    0 -5.8717565790e+01 -7.7818040702e+01 -5.0771029953e+01 1.4859709780e+02 1.0000000000e+02 0.0000e+00 0.0000e+00
<mgrwt>
<rscale>  0 0.48666944E+03</rscale>
<asrwt>0</asrwt>
<pdfrwt beam="1">  1        4 0.81294606E-01 0.48666944E+03</pdfrwt>
<pdfrwt beam="2">  1       -4 0.45522535E-01 0.48666944E+03</pdfrwt>
<totfact> 0.12179811E+01</totfact>
</mgrwt>
</event>
<event>
 6      1 +2.6141198e-09 4.19841400e+02 7.81860800e-03 1.03711800e-01
       -4 -1    0    0    0  501 -0.0000000000e+00 +0.0000000000e+00 +3.0810167528e+02 3.0810429275e+02 1.2700000000e+00 0.0000e+00 1.0000e+00
        4 -1    0    0  501    0 +0.0000000000e+00 -0.0000000000e+00 -1.4302041685e+02 1.4302605545e+02 1.2700000000e+00 0.0000e+00 1.0000e+00
      -13  1    1    2    0    0 +4.2659336133e+01 +5.1216307731e+01 +3.2700766451e+01 7.4244733331e+01 1.0566000000e-01 0.0000e+00 1.0000e+00
       13  1    1    2    0    0 +1.6149348342e+01 -3.8516811453e+01 +7.2180208918e+01 8.3392685170e+01 1.0566000000e-01 0.0000e+00 -1.0000e+00
    10002  1    1    2    0    0 +5.2100603566e+01 -5.1839737793e+01 -8.7581956073e+00 1.2441276983e+02 1.0000000000e+02 0.0000e+00 0.0000e+00
   -10002  1    1    2    0    0 -1.1090928804e+02 +3.9140241515e+01 +6.8958478666e+01 1.6908015986e+02 1.0000000000e+02 0.0000e+00 0.0000e+00
<mgrwt>
<rscale>  0 0.41984136E+03</rscale>
<asrwt>0</asrwt>
<pdfrwt beam="1">  1        4 0.35756136E-01 0.41984136E+03</pdfrwt>
<pdfrwt beam="2">  1       -4 0.77026450E-01 0.41984136E+03</pdfrwt>
<totfact> 0.22179649E+01</totfact>
</mgrwt>
</event>
<event>
 6      1 +2.6141198e-09 3.90893900e+02 7.81860800e-03 1.04697900e-01
        4 -1    0    0  501    0 +0.0000000000e+00 +0.0000000000e+00 +4.4747807414e+02 4.4747987635e+02 1.2700000000e+00 0.0000e+00 -1.0000e+00
       -4 -1    0    0    0  501 -0.0000000000e+00 -0.0000000000e+00 -8.5359528199e+01 8.5368975362e+01 1.2700000000e+00 0.0000e+00 -1.0000e+00
      -13  1    1    2    0    0 -5.1806894357e+01 +2.4800560880e+01 +4.9166421529e+01 7.5606681536e+01 1.0566000000e-01 0.0000e+00 1.0000e+00
       13  1    1    2    0    0 +2.7494497390e+01 +2.3128820537e+01 +9.3590661210e+00 3.7128062283e+01 1.0566000000e-01 0.0000e+00 -1.0000e+00
    10002  1    1    2    0    0 +7.8033279442e+01 +5.2960887017e+01 +1.2633928672e+02 1.8669671562e+02 1.0000000000e+02 0.0000e+00 0.0000e+00
   -10002  1    1    2    0    0 -5.3720882476e+01 -1.0089026844e+02 +1.7725377158e+02 2.3341739228e+02 1.0000000000e+02 0.0000e+00 0.0000e+00
<mgrwt>
<rscale>  0 0.39089392E+03</rscale>
<asrwt>0</asrwt>
<pdfrwt beam="1">  1        4 0.11187092E+00 0.39089392E+03</pdfrwt>
<pdfrwt beam="2">  1       -4 0.21341289E-01 0.39089392E+03</pdfrwt>
<totfact> 0.24761309E+01</totfact>
</mgrwt>
</event>
<event>
 6      1 +2.6141198e-09 3.36184400e+02 7.81860800e-03 1.06843300e-01
       -4 -1    0    0    0  501 -0.0000000000e+00 +0.0000000000e+00 +3.8653824239e+01 3.8674682007e+01 1.2700000000e+00 0.0000e+00 -1.0000e+00
        4 -1    0    0  501    0 +0.0000000000e+00 -0.0000000000e+00 -7.3075686095e+02 7.3075796453e+02 1.2700000000e+00 0.0000e+00 -1.0000e+00
      -13  1    1    2    0    0 -1.2096661727e+00 +2.7722082957e+01 -1.2243349991e+02 1.2553864042e+02 1.0566000000e-01 0.0000e+00 1.0000e+00
       13  1    1    2    0    0 -1.3103599432e+01 -6.5587138506e+01 -8.5950438136e+01 1.0890760320e+02 1.0566000000e-01 0.0000e+00 -1.0000e+00
    10002  1    1    2    0    0 +2.8203447050e+01 +8.1359654252e+00 -3.4782341586e+02 3.6310157942e+02 1.0000000000e+02 0.0000e+00 0.0000e+00
   -10002  1    1    2    0    0 -1.3890181445e+01 +2.9729090124e+01 -1.3589568280e+02 1.7188482349e+02 1.0000000000e+02 0.0000e+00 0.0000e+00
<mgrwt>
<rscale>  0 0.33618445E+03</rscale>
<asrwt>0</asrwt>
<pdfrwt beam="1">  1        4 0.18269192E+00 0.33618445E+03</pdfrwt>
<pdfrwt beam="2">  1       -4 0.96662036E-02 0.33618445E+03</pdfrwt>
<totfact> 0.27953040E+01</totfact>
</mgrwt>
</event>
<event>
 6      1 +2.6141198e-09 6.34134200e+02 7.81860800e-03 9.83701400e-02
        4 -1    0    0  501    0 +0.0000000000e+00 +0.0000000000e+00 +1.1311899449e+02 1.1312612348e+02 1.2700000000e+00 0.0000e+00 1.0000e+00
       -4 -1    0    0    0  501 -0.0000000000e+00 -0.0000000000e+00 -8.8868832103e+02 8.8868922849e+02 1.2700000000e+00 0.0000e+00 1.0000e+00
      -13  1    1    2    0    0 +2.4183761791e+01 -1.5970393804e+01 -1.1483638224e+02 1.1843696071e+02 1.0566000000e-01 0.0000e+00 -1.0000e+00
       13  1    1    2    0    0 -7.8264218273e+01 +4.9470197390e+00 -1.0452712750e+02 1.3067399287e+02 1.0566000000e-01 0.0000e+00 1.0000e+00
    10002  1    1    2    0    0 +1.7755739154e+02 +1.8173197419e+02 -2.7767168139e+02 3.8942868458e+02 1.0000000000e+02 0.0000e+00 0.0000e+00
   -10002  1    1    2    0    0 -1.2347693505e+02 -1.7070860012e+02 -2.7853413542e+02 3.6327571380e+02 1.0000000000e+02 0.0000e+00 0.0000e+00
<mgrwt>
<rscale>  0 0.63413423E+03</rscale>
<asrwt>0</asrwt>
<pdfrwt beam="1">  1        4 0.28280756E-01 0.63413423E+03</pdfrwt>
<pdfrwt beam="2">  1       -4 0.22217306E+00 0.63413423E+03</pdfrwt>
<totfact> 0.22783139E+00</totfact>
</mgrwt>
</event>
<event>
 6      1 +2.6141198e-09 7.34608000e+02 7.81860800e-03 9.65981200e-02
       -4 -1    0    0    0  501 -0.0000000000e+00 +0.0000000000e+00 +3.5967089204e+02 3.5967313422e+02 1.2700000000e+00 0.0000e+00 1.0000e+00
        4 -1    0    0  501    0 +0.0000000000e+00 -0.0000000000e+00 -3.7509464410e+02 3.7509679408e+02 1.2700000000e+00 0.0000e+00 1.0000e+00
      -13  1    1    2    0    0 +2.5553352638e+01 -6.8841392372e+00 -2.6788891342e+01 3.7656620500e+01 1.0566000000e-01 0.0000e+00 -1.0000e+00
       13  1    1    2    0    0 +6.5277521228e+00 -9.5609419746e+01 +4.8367752007e+01 1.0734627749e+02 1.0566000000e-01 0.0000e+00 1.0000e+00
    10002  1    1    2    0    0 +1.6757920028e+02 -5.0255042830e+01 -1.9168500455e+02 2.7812137399e+02 1.0000000000e+02 0.0000e+00 0.0000e+00
   -10002  1    1    2    0    0 -1.9966030504e+02 +1.5274860181e+02 +1.5468239184e+02 3.1164565633e+02 1.0000000000e+02 0.0000e+00 0.0000e+00
<mgrwt>
<rscale>  0 0.73460803E+03</rscale>
<asrwt>0</asrwt>
<pdfrwt beam="1">  1        4 0.93774210E-01 0.73460803E+03</pdfrwt>
<pdfrwt beam="2">  1       -4 0.89918272E-01 0.73460803E+03</pdfrwt>
<totfact> 0.19998432E+00</totfact>
</mgrwt>
</event>
<event>
 6      1 +2.6141198e-09 4.73130900e+02 7.81860800e-03 1.02104000e-01
        4 -1    0    0  501    0 +0.0000000000e+00 +0.0000000000e+00 +1.0487487561e+02 1.0488256497e+02 1.2700000000e+00 0.0000e+00 1.0000e+00
       -4 -1    0    0    0  501 -0.0000000000e+00 -0.0000000000e+00 -5.3359077759e+02 5.3359228895e+02 1.2700000000e+00 0.0000e+00 1.0000e+00
      -13  1    1    2    0    0 +1.5163753067e+01 +2.9765716748e+01 -1.8348773520e+02 1.8650388048e+02 1.0566000000e-01 0.0000e+00 1.0000e+00
       13  1    1    2    0    0 -2.7942001245e+01 +4.8053252745e+01 -3.6593031150e+01 6.6550218826e+01 1.0566000000e-01 0.0000e+00 -1.0000e+00
    10002  1    1    2    0    0 +9.2391913056e+01 -7.5041735153e+01 -1.8863781346e+01 1.5659939291e+02 1.0000000000e+02 0.0000e+00 0.0000e+00
   -10002  1    1    2    0    0 -7.9613664877e+01 -2.7772343404e+00 -1.8977135428e+02 2.2882136170e+02 1.0000000000e+02 0.0000e+00 0.0000e+00
<mgrwt>
<rscale>  0 0.47313086E+03</rscale>
<asrwt>0</asrwt>
<pdfrwt beam="1">  1        4 0.26219870E-01 0.47313086E+03</pdfrwt>
<pdfrwt beam="2">  1       -4 0.13339884E+00 0.47313086E+03</pdfrwt>
<totfact> 0.11004560E+01</totfact>
</mgrwt>
</event>
<event>
 6      1 +2.6141198e-09 3.75666500e+02 7.81860800e-03 1.05254700e-01
        4 -1    0    0  501    0 +0.0000000000e+00 +0.0000000000e+00 +1.7031203798e+02 1.7031677304e+02 1.2700000000e+00 0.0000e+00 -1.0000e+00
       -4 -1    0    0    0  501 -0.0000000000e+00 -0.0000000000e+00 -2.0714743317e+02 2.0715132625e+02 1.2700000000e+00 0.0000e+00 -1.0000e+00
      -13  1    1    2    0    0 -3.9566043521e+01 +5.9186148844e+01 -4.9588972292e+01 8.6761450840e+01 1.0566000000e-01 0.0000e+00 -1.0000e+00
       13  1    1    2    0    0 -9.2118555442e+00 -4.1061718365e+00 +3.9286818231e+01 4.0560870066e+01 1.0566000000e-01 0.0000e+00 1.0000e+00
    10002  1    1    2    0    0 +2.9224412580e+01 -4.1153337203e+01 -7.6662103279e+01 1.3573776753e+02 1.0000000000e+02 0.0000e+00 0.0000e+00
   -10002  1    1    2    0    0 +1.9553486486e+01 -1.3926639804e+01 +5.0128862145e+01 1.1440801086e+02 1.0000000000e+02 0.0000e+00 0.0000e+00
<mgrwt>
<rscale>  0 0.37566650E+03</rscale>
<asrwt>0</asrwt>
<pdfrwt beam="1">  1        4 0.42579088E-01 0.37566650E+03</pdfrwt>
<pdfrwt beam="2">  1       -4 0.51787937E-01 0.37566650E+03</pdfrwt>
<totfact> 0.36616199E+01</totfact>
</mgrwt>
</event>
<event>
 6      1 +2.6141198e-09 3.82222800e+02 7.81860800e-03 1.05011500e-01
        4 -1    0    0  501    0 +0.0000000000e+00 +0.0000000000e+00 +3.0848138206e+02 3.0848399631e+02 1.2700000000e+00 0.0000e+00 -1.0000e+00
       -4 -1    0    0    0  501 -0.0000000000e+00 -0.0000000000e+00 -1.1839146168e+02 1.1839827321e+02 1.2700000000e+00 0.0000e+00 -1.0000e+00
      -13  1    1    2    0    0 -1.1492620807e+01 -1.9509854813e+00 -4.3305362767e+01 4.4846987477e+01 1.0566000000e-01 0.0000e+00 1.0000e+00
       13  1    1    2    0    0 -4.1645466164e+01 +2.9928286602e+01 +4.6221874135e+01 6.9039988439e+01 1.0566000000e-01 0.0000e+00 -1.0000e+00
    10002  1    1    2    0    0 +5.9653947373e+01 -7.2624513254e+01 +1.3109251731e+02 1.8978451322e+02 1.0000000000e+02 0.0000e+00 0.0000e+00
   -10002  1    1    2    0    0 -6.5158604019e+00 +4.4647212133e+01 +5.6080891702e+01 1.2321078038e+02 1.0000000000e+02 0.0000e+00 0.0000e+00
<mgrwt>
<rscale>  0 0.38222283E+03</rscale>
<asrwt>0</asrwt>
<pdfrwt beam="1">  1        4 0.77121523E-01 0.38222283E+03</pdfrwt>
<pdfrwt beam="2">  1       -4 0.29599044E-01 0.38222283E+03</pdfrwt>
<totfact> 0.31746762E+01</totfact>
</mgrwt>
</event>
<event>
 6      1 +2.6141198e-09 5.63188200e+02 7.81860800e-03 9.98486600e-02
        4 -1    0    0  501    0 +0.0000000000e+00 +0.0000000000e+00 +5.3228940177e+02 5.3229091683e+02 1.2700000000e+00 0.0000e+00 -1.0000e+00
       -4 -1    0    0    0  501 -0.0000000000e+00 -0.0000000000e+00 -1.4896574572e+02 1.4897115929e+02 1.2700000000e+00 0.0000e+00 -1.0000e+00
      -13  1    1    2    0    0 +3.1124609096e+01 +1.0421015845e+01 +5.7382847133e+01 6.6107043284e+01 1.0566000000e-01 0.0000e+00 -1.0000e+00
       13  1    1    2    0    0 -3.6028909183e+01 +6.2035450484e+01 +1.8670036659e+01 7.4128677626e+01 1.0566000000e-01 0.0000e+00 1.0000e+00
    10002  1    1    2    0    0 -1.8171539275e+02 +3.0705387504e+01 +1.3874835507e+02 2.5142476175e+02 1.0000000000e+02 0.0000e+00 0.0000e+00
   -10002  1    1    2    0    0 +1.8661969284e+02 -1.0316185383e+02 +1.6852241719e+02 2.8960159346e+02 1.0000000000e+02 0.0000e+00 0.0000e+00
<mgrwt>
<rscale>  0 0.56318824E+03</rscale>
<asrwt>0</asrwt>
<pdfrwt beam="1">  1        4 0.13307322E+00 0.56318824E+03</pdfrwt>
<pdfrwt beam="2">  1       -4 0.37242303E-01 0.56318824E+03</pdfrwt>
<totfact> 0.56293352E+00</totfact>
</mgrwt>
</event>
<event>
 6      1 +2.6141198e-09 7.83591500e+02 7.81860800e-03 9.58407600e-02
       -4 -1    0    0    0  501 -0.0000000000e+00 +0.0000000000e+00 +2.4543895046e+02 2.4544223618e+02 1.2700000000e+00 0.0000e+00 -1.0000e+00
        4 -1    0    0  501    0 +0.0000000000e+00 -0.0000000000e+00 -6.2541788791e+02 6.2541917736e+02 1.2700000000e+00 0.0000e+00 -1.0000e+00
      -13  1    1    2    0    0 +8.9673226569e+01 +6.6448606280e+01 -5.8862113925e+01 1.2618028554e+02 1.0566000000e-01 0.0000e+00 -1.0000e+00
       13  1    1    2    0    0 -1.5871168488e+01 +5.4453556231e+01 -3.2325286304e+01 6.5284141060e+01 1.0566000000e-01 0.0000e+00 1.0000e+00
    10002  1    1    2    0    0 -9.5690221949e+01 -9.5469419238e+01 +1.5169571830e+02 2.2645666150e+02 1.0000000000e+02 0.0000e+00 0.0000e+00
   -10002  1    1    2    0    0 +2.1888163867e+01 -2.5432743272e+01 -4.4048725551e+02 4.5294032545e+02 1.0000000000e+02 0.0000e+00 0.0000e+00
<mgrwt>
<rscale>  0 0.78359148E+03</rscale>
<asrwt>0</asrwt>
<pdfrwt beam="1">  1        4 0.15635504E+00 0.78359148E+03</pdfrwt>
<pdfrwt beam="2">  1       -4 0.61360311E-01 0.78359148E+03</pdfrwt>
<totfact> 0.13082553E+00</totfact>
</mgrwt>
</event>
<event>
 6      1 +2.6141198e-09 4.37859200e+02 7.81860800e-03 1.03140600e-01
       -4 -1    0    0    0  501 -0.0000000000e+00 +0.0000000000e+00 +6.6779134852e+02 6.6779255616e+02 1.2700000000e+00 0.0000e+00 1.0000e+00
        4 -1    0    0  501    0 +0.0000000000e+00 -0.0000000000e+00 -7.1767270034e+01 7.1778506171e+01 1.2700000000e+00 0.0000e+00 1.0000e+00
      -13  1    1    2    0    0 +5.5122922048e+01 -5.1059654841e-02 +1.9208785023e+02 1.9984066782e+02 1.0566000000e-01 0.0000e+00 -1.0000e+00
       13  1    1    2    0    0 -3.8648547737e+01 +2.6112670598e+01 +9.5912787220e+01 1.0665296866e+02 1.0566000000e-01 0.0000e+00 1.0000e+00
    10002  1    1    2    0    0 -2.8762353978e+01 +2.5310459861e+01 +3.0132220396e+02 3.1978580797e+02 1.0000000000e+02 0.0000e+00 0.0000e+00
   -10002  1    1    2    0    0 +1.2287979668e+01 -5.1372070804e+01 +6.7012370797e+00 1.1329161788e+02 1.0000000000e+02 0.0000e+00 0.0000e+00
<mgrwt>
<rscale>  0 0.43785917E+03</rscale>
<asrwt>0</asrwt>
<pdfrwt beam="1">  1        4 0.17943373E-01 0.43785917E+03</pdfrwt>
<pdfrwt beam="2">  1       -4 0.16694939E+00 0.43785917E+03</pdfrwt>
<totfact> 0.12275997E+01</totfact>
</mgrwt>
</event>
<event>
 6      1 +2.6141198e-09 7.23810200e+02 7.81860800e-03 9.67735800e-02
       -4 -1    0    0    0  501 -0.0000000000e+00 +0.0000000000e+00 +3.9747176263e+02 3.9747379157e+02 1.2700000000e+00 0.0000e+00 -1.0000e+00
        4 -1    0    0  501    0 +0.0000000000e+00 -0.0000000000e+00 -3.2951691599e+02 3.2951936335e+02 1.2700000000e+00 0.0000e+00 -1.0000e+00
      -13  1    1    2    0    0 +7.2223498629e+00 +1.6539091397e+01 +2.5018875386e+01 3.0848973587e+01 1.0566000000e-01 0.0000e+00 1.0000e+00
       13  1    1    2    0    0 +9.8786712896e+01 +9.3270829645e+01 -9.3400974711e+01 1.6486969263e+02 1.0566000000e-01 0.0000e+00 -1.0000e+00
    10002  1    1    2    0    0 -7.5455967716e+01 +3.5370122677e+01 -1.4689072905e+02 1.9626903710e+02 1.0000000000e+02 0.0000e+00 0.0000e+00
   -10002  1    1    2    0    0 -3.0553095043e+01 -1.4518004372e+02 +2.8322767502e+02 3.3500545161e+02 1.0000000000e+02 0.0000e+00 0.0000e+00
<mgrwt>
<rscale>  0 0.72381019E+03</rscale>
<asrwt>0</asrwt>
<pdfrwt beam="1">  1        4 0.82379789E-01 0.72381019E+03</pdfrwt>
<pdfrwt beam="2">  1       -4 0.99368500E-01 0.72381019E+03</pdfrwt>
<totfact> 0.21345959E+00</totfact>
</mgrwt>
</event>
<event>
 6      1 +2.6141198e-09 4.30695400e+02 7.81860800e-03 1.03364100e-01
       -4 -1    0    0    0  501 -0.0000000000e+00 +0.0000000000e+00 +1.9949811387e+02 1.9950215623e+02 1.2700000000e+00 0.0000e+00 -1.0000e+00
        4 -1    0    0  501    0 +0.0000000000e+00 -0.0000000000e+00 -2.3244835406e+02 2.3245182341e+02 1.2700000000e+00 0.0000e+00 -1.0000e+00
      -13  1    1    2    0    0 +2.4865675529e+01 +2.3144434271e+00 +1.7472766309e+01 3.0478963145e+01 1.0566000000e-01 0.0000e+00 1.0000e+00
       13  1    1    2    0    0 -3.5257155700e+00 -5.6291425922e+01 -4.1480387166e+01 7.0012777306e+01 1.0566000000e-01 0.0000e+00 -1.0000e+00
    10002  1    1    2    0    0 -6.2842300387e+01 +4.5017987089e+01 -1.2129086972e+02 1.7517776387e+02 1.0000000000e+02 0.0000e+00 0.0000e+00
   -10002  1    1    2    0    0 +4.1502340428e+01 +8.9589954054e+00 +1.1234825038e+02 1.5628447531e+02 1.0000000000e+02 0.0000e+00 0.0000e+00
<mgrwt>
<rscale>  0 0.43069539E+03</rscale>
<asrwt>0</asrwt>
<pdfrwt beam="1">  1        4 0.58113027E-01 0.43069539E+03</pdfrwt>
<pdfrwt beam="2">  1       -4 0.49875467E-01 0.43069539E+03</pdfrwt>
<totfact> 0.20966499E+01</totfact>
</mgrwt>
</event>
<event>
 6      1 +2.6141198e-09 4.00942300e+02 7.81860800e-03 1.04345400e-01
       -4 -1    0    0    0  501 -0.0000000000e+00 +0.0000000000e+00 +6.6093768946e+02 6.6093890962e+02 1.2700000000e+00 0.0000e+00 -1.0000e+00
        4 -1    0    0  501    0 +0.0000000000e+00 -0.0000000000e+00 -6.0797635848e+01 6.0810898898e+01 1.2700000000e+00 0.0000e+00 -1.0000e+00
      -13  1    1    2    0    0 -1.6118010551e+01 -4.3075884256e+00 -2.7717072609e+01 3.2351087466e+01 1.0566000000e-01 0.0000e+00 1.0000e+00
       13  1    1    2    0    0 -2.5883256441e+00 +2.4075545548e+01 +8.1364847198e+01 8.4891582897e+01 1.0566000000e-01 0.0000e+00 -1.0000e+00
    10002  1    1    2    0    0 +6.2248796482e+01 -4.3490235125e+01 +1.6698867640e+02 2.0892948873e+02 1.0000000000e+02 0.0000e+00 0.0000e+00
   -10002  1    1    2    0    0 -4.3542460287e+01 +2.3722278003e+01 +3.7950360263e+02 3.9557764943e+02 1.0000000000e+02 0.0000e+00 0.0000e+00
<mgrwt>
<rscale>  0 0.40094227E+03</rscale>
<asrwt>0</asrwt>
<pdfrwt beam="1">  1        4 0.15201220E-01 0.40094227E+03</pdfrwt>
<pdfrwt beam="2">  1       -4 0.16523623E+00 0.40094227E+03</pdfrwt>
<totfact> 0.16941103E+01</totfact>
</mgrwt>
</event>
<event>
 6      1 +2.6141198e-09 4.60084600e+02 7.81860800e-03 1.02475700e-01
       -4 -1    0    0    0  501 -0.0000000000e+00 +0.0000000000e+00 +6.8124596254e+01 6.8136433094e+01 1.2700000000e+00 0.0000e+00 1.0000e+00
        4 -1    0    0  501    0 +0.0000000000e+00 -0.0000000000e+00 -7.7672423770e+02 7.7672527597e+02 1.2700000000e+00 0.0000e+00 1.0000e+00
      -13  1    1    2    0    0 +2.1002524733e+01 -1.6971722363e+01 -1.1120075560e+02 1.1443235825e+02 1.0566000000e-01 0.0000e+00 -1.0000e+00
       13  1    1    2    0    0 +3.2443697573e+01 +7.9966775557e+01 -7.6074130107e+01 1.1504157136e+02 1.0566000000e-01 0.0000e+00 1.0000e+00
    10002  1    1    2    0    0 -6.0450610256e+00 -1.1958234087e+02 -1.2461741115e+02 1.9966466431e+02 1.0000000000e+02 0.0000e+00 0.0000e+00
   -10002  1    1    2    0    0 -4.7401161280e+01 +5.6587287675e+01 -3.9670734459e+02 4.1572311515e+02 1.0000000000e+02 0.0000e+00 0.0000e+00
<mgrwt>
<rscale>  0 0.46008462E+03</rscale>
<asrwt>0</asrwt>
<pdfrwt beam="1">  1        4 0.19418264E+00 0.46008462E+03</pdfrwt>
<pdfrwt beam="2">  1       -4 0.17032761E-01 0.46008462E+03</pdfrwt>
<totfact> 0.88143188E+00</totfact>
</mgrwt>
</event>
<event>
 6      1 +2.6141198e-09 4.35342800e+02 7.81860800e-03 1.03218500e-01
       -4 -1    0    0    0  501 -0.0000000000e+00 +0.0000000000e+00 +4.0033541483e+02 4.0033742926e+02 1.2700000000e+00 0.0000e+00 1.0000e+00
        4 -1    0    0  501    0 +0.0000000000e+00 -0.0000000000e+00 -1.1834715521e+02 1.1835396929e+02 1.2700000000e+00 0.0000e+00 1.0000e+00
      -13  1    1    2    0    0 +5.8069010583e+01 +6.6984240567e+00 +3.7830226079e+01 6.9627695956e+01 1.0566000000e-01 0.0000e+00 -1.0000e+00
       13  1    1    2    0    0 -9.7308520859e+00 +2.4610371715e+01 -3.2634508875e+01 4.2016451680e+01 1.0566000000e-01 0.0000e+00 1.0000e+00
    10002  1    1    2    0    0 -7.2702338350e+00 -8.6219469986e+01 +3.5368041506e+01 1.3688517694e+02 1.0000000000e+02 0.0000e+00 0.0000e+00
   -10002  1    1    2    0    0 -4.1067924662e+01 +5.4910674214e+01 +2.4142450090e+02 2.7016207398e+02 1.0000000000e+02 0.0000e+00 0.0000e+00
<mgrwt>
<rscale>  0 0.43534284E+03</rscale>
<asrwt>0</asrwt>
<pdfrwt beam="1">  1        4 0.29587893E-01 0.43534284E+03</pdfrwt>
<pdfrwt beam="2">  1       -4 0.10008496E+00 0.43534284E+03</pdfrwt>
<totfact> 0.17592664E+01</totfact>
</mgrwt>
</event>
<event>
 6      1 +2.6141198e-09 3.93722800e+02 7.81860800e-03 1.04597500e-01
       -4 -1    0    0    0  501 -0.0000000000e+00 +0.0000000000e+00 +6.3138381120e+02 6.3138508847e+02 1.2700000000e+00 0.0000e+00 -1.0000e+00
        4 -1    0    0  501    0 +0.0000000000e+00 -0.0000000000e+00 -6.1372216711e+01 6.1385355615e+01 1.2700000000e+00 0.0000e+00 -1.0000e+00
      -13  1    1    2    0    0 -4.7579258288e+00 +3.6439196430e+01 +1.5270997482e+02 1.5706941290e+02 1.0566000000e-01 0.0000e+00 -1.0000e+00
       13  1    1    2    0    0 +2.8709424637e+01 -3.8476934253e+01 +1.7273794912e+01 5.1020590816e+01 1.0566000000e-01 0.0000e+00 1.0000e+00
    10002  1    1    2    0    0 -4.1666097749e+01 +2.4831735243e+00 +3.5925807967e+02 3.7524471703e+02 1.0000000000e+02 0.0000e+00 0.0000e+00
   -10002  1    1    2    0    0 +1.7714598941e+01 -4.4543570138e-01 +4.0769745086e+01 1.0943572334e+02 1.0000000000e+02 0.0000e+00 0.0000e+00
<mgrwt>
<rscale>  0 0.39372283E+03</rscale>
<asrwt>0</asrwt>
<pdfrwt beam="1">  1        4 0.15344856E-01 0.39372283E+03</pdfrwt>
<pdfrwt beam="2">  1       -4 0.15784775E+00 0.39372283E+03</pdfrwt>
<totfact> 0.18827564E+01</totfact>
</mgrwt>
</event>
<event>
 6      1 +2.6141198e-09 6.23764200e+02 7.81860800e-03 9.85729400e-02
       -4 -1    0    0    0  501 -0.0000000000e+00 +0.0000000000e+00 +3.8610568485e+02 3.8610777352e+02 1.2700000000e+00 0.0000e+00 -1.0000e+00
        4 -1    0    0  501    0 +0.0000000000e+00 -0.0000000000e+00 -2.5192259414e+02 2.5192579530e+02 1.2700000000e+00 0.0000e+00 -1.0000e+00
      -13  1    1    2    0    0 -1.8724727325e+01 -1.1651692965e+01 +1.0377356477e+01 2.4373716455e+01 1.0566000000e-01 0.0000e+00 -1.0000e+00
       13  1    1    2    0    0 +1.4306464349e+01 +1.5138347090e+02 +3.7500406102e+01 1.5661392597e+02 1.0566000000e-01 0.0000e+00 1.0000e+00
    10002  1    1    2    0    0 -1.8045531031e+02 -7.7019098513e+01 -2.9520380835e+00 2.2023799646e+02 1.0000000000e+02 0.0000e+00 0.0000e+00
   -10002  1    1    2    0    0 +1.8487357329e+02 -6.2712679423e+01 +8.9257366214e+01 2.3680792994e+02 1.0000000000e+02 0.0000e+00 0.0000e+00
<mgrwt>
<rscale>  0 0.62376416E+03</rscale>
<asrwt>0</asrwt>
<pdfrwt beam="1">  1        4 0.62981310E-01 0.62376416E+03</pdfrwt>
<pdfrwt beam="2">  1       -4 0.96527082E-01 0.62376416E+03</pdfrwt>
<totfact> 0.41570219E+00</totfact>
</mgrwt>
</event>
<event>
 6      1 +2.6141198e-09 5.76501100e+02 7.81860800e-03 9.95539500e-02
        4 -1    0    0  501    0 +0.0000000000e+00 +0.0000000000e+00 +1.1319538468e+03 1.1319545592e+03 1.2700000000e+00 0.0000e+00 -1.0000e+00
       -4 -1    0    0    0  501 -0.0000000000e+00 -0.0000000000e+00 -7.3396391132e+01 7.3407377907e+01 1.2700000000e+00 0.0000e+00 -1.0000e+00
      -13  1    1    2    0    0 -4.5883737729e+01 +3.1525295477e+01 +2.1255495450e+01 5.9590006660e+01 1.0566000000e-01 0.0000e+00 -1.0000e+00
       13  1    1    2    0    0 +3.1121897028e+01 -5.3063264489e+01 +1.4644536392e+02 1.5884123611e+02 1.0566000000e-01 0.0000e+00 1.0000e+00
    10002  1    1    2    0    0 +6.5988667070e+01 +1.5587233824e+02 +7.0356643831e+02 7.3051791431e+02 1.0000000000e+02 0.0000e+00 0.0000e+00
   -10002  1    1    2    0    0 -5.1226826369e+01 -1.3433436923e+02 +1.8729015795e+02 2.5641278002e+02 1.0000000000e+02 0.0000e+00 0.0000e+00
<mgrwt>
<rscale>  0 0.57650110E+03</rscale>
<asrwt>0</asrwt>
<pdfrwt beam="1">  1        4 0.28298992E+00 0.57650110E+03</pdfrwt>
<pdfrwt beam="2">  1       -4 0.18350560E-01 0.57650110E+03</pdfrwt>
<totfact> 0.21811313E+00</totfact>
</mgrwt>
</event>
<event>
 6      1 +2.6141198e-09 4.80617400e+02 7.81860800e-03 1.01896600e-01
       -4 -1    0    0    0  501 -0.0000000000e+00 +0.0000000000e+00 +1.6967086913e+02 1.6967562209e+02 1.2700000000e+00 0.0000e+00 -1.0000e+00
        4 -1    0    0  501    0 +0.0000000000e+00 -0.0000000000e+00 -3.4034396336e+02 3.4034633287e+02 1.2700000000e+00 0.0000e+00 -1.0000e+00
      -13  1    1    2    0    0 +3.0260897298e+01 -2.4269994770e+01 -1.8855075144e+01 4.3130958419e+01 1.0566000000e-01 0.0000e+00 -1.0000e+00
       13  1    1    2    0    0 -2.2364509902e+01 +5.3299217501e+01 +4.5315491351e+01 7.3447142965e+01 1.0566000000e-01 0.0000e+00 1.0000e+00
    10002  1    1    2    0    0 +9.2418096425e+01 +4.7887120031e+01 -1.8092884646e+02 2.3145091983e+02 1.0000000000e+02 0.0000e+00 0.0000e+00
   -10002  1    1    2    0    0 -1.0031448382e+02 -7.6916342762e+01 -1.6204663976e+01 1.6199293374e+02 1.0000000000e+02 0.0000e+00 0.0000e+00
<mgrwt>
<rscale>  0 0.48061740E+03</rscale>
<asrwt>0</asrwt>
<pdfrwt beam="1">  1        4 0.85086880E-01 0.48061740E+03</pdfrwt>
<pdfrwt beam="2">  1       -4 0.42418608E-01 0.48061740E+03</pdfrwt>
<totfact> 0.12669888E+01</totfact>
</mgrwt>
</event>
<event>
 6      1 +2.6141198e-09 5.71385400e+02 7.81860800e-03 9.96661700e-02
       -4 -1    0    0    0  501 -0.0000000000e+00 +0.0000000000e+00 +5.2657064006e+02 5.2657217157e+02 1.2700000000e+00 0.0000e+00 1.0000e+00
        4 -1    0    0  501    0 +0.0000000000e+00 -0.0000000000e+00 -1.5499921768e+02 1.5500442053e+02 1.2700000000e+00 0.0000e+00 1.0000e+00
      -13  1    1    2    0    0 -9.9717234176e+00 +8.3445003055e+01 +3.8036547459e+01 9.2245834103e+01 1.0566000000e-01 0.0000e+00 1.0000e+00
       13  1    1    2    0    0 -1.3400668492e+01 -2.5006183344e+01 -1.0670184357e+01 3.0310907603e+01 1.0566000000e-01 0.0000e+00 -1.0000e+00
    10002  1    1    2    0    0 -1.3503989067e+02 +8.7753490664e+01 +8.6163605958e+01 2.0823211613e+02 1.0000000000e+02 0.0000e+00 0.0000e+00
   -10002  1    1    2    0    0 +1.5841228257e+02 -1.4619231037e+02 +2.5804145332e+02 3.5078773427e+02 1.0000000000e+02 0.0000e+00 0.0000e+00
<mgrwt>
<rscale>  0 0.57138545E+03</rscale>
<asrwt>0</asrwt>
<pdfrwt beam="1">  1        4 0.38750647E-01 0.57138545E+03</pdfrwt>
<pdfrwt beam="2">  1       -4 0.13164350E+00 0.57138545E+03</pdfrwt>
<totfact> 0.53462338E+00</totfact>
</mgrwt>
</event>
<event>
 6      1 +2.6141198e-09 4.71436200e+02 7.81860800e-03 1.02151600e-01
        4 -1    0    0  501    0 +0.0000000000e+00 +0.0000000000e+00 +9.0481622334e+01 9.0490534755e+01 1.2700000000e+00 0.0000e+00 1.0000e+00
       -4 -1    0    0    0  501 -0.0000000000e+00 -0.0000000000e+00 -6.1404083140e+02 6.1404214475e+02 1.2700000000e+00 0.0000e+00 1.0000e+00
      -13  1    1    2    0    0 +1.2333875030e+01 -1.2836502619e+01 +3.8203762310e-02 1.7802047532e+01 1.0566000000e-01 0.0000e+00 -1.0000e+00
       13  1    1    2    0    0 -9.5071437081e+01 +2.8170667891e+01 -9.2653129518e+01 1.3570843103e+02 1.0566000000e-01 0.0000e+00 1.0000e+00
    10002  1    1    2    0    0 +1.5580219006e+02 +3.9240130808e+01 -1.5865397548e+02 2.4695180548e+02 1.0000000000e+02 0.0000e+00 0.0000e+00
   -10002  1    1    2    0    0 -7.3064628011e+01 -5.4574296080e+01 -2.7229030784e+02 3.0407039547e+02 1.0000000000e+02 0.0000e+00 0.0000e+00
<mgrwt>
<rscale>  0 0.47143616E+03</rscale>
<asrwt>0</asrwt>
<pdfrwt beam="1">  1        4 0.22621686E-01 0.47143616E+03</pdfrwt>
<pdfrwt beam="2">  1       -4 0.15351147E+00 0.47143616E+03</pdfrwt>
<totfact> 0.10084593E+01</totfact>
</mgrwt>
</event>
<event>
 6      1 +2.6141198e-09 3.99588900e+02 7.81860800e-03 1.04392200e-01
        4 -1    0    0  501    0 +0.0000000000e+00 +0.0000000000e+00 +4.0728466485e+02 4.0728664491e+02 1.2700000000e+00 0.0000e+00 -1.0000e+00
       -4 -1    0    0    0  501 -0.0000000000e+00 -0.0000000000e+00 -9.8003308870e+01 9.8011537329e+01 1.2700000000e+00 0.0000e+00 -1.0000e+00
      -13  1    1    2    0    0 +6.7372733319e+00 +6.8423005088e+01 +1.8507418029e+01 7.1201363494e+01 1.0566000000e-01 0.0000e+00 -1.0000e+00
       13  1    1    2    0    0 -1.4872838180e+01 -3.2922581668e+01 +2.7021159939e+01 4.5113766720e+01 1.0566000000e-01 0.0000e+00 1.0000e+00
    10002  1    1    2    0    0 +5.4131771100e+01 -4.0987297054e+01 +2.1404846645e+01 1.2275330799e+02 1.0000000000e+02 0.0000e+00 0.0000e+00
   -10002  1    1    2    0    0 -4.5996206252e+01 +5.4868736339e+00 +2.4234793137e+02 2.6622974404e+02 1.0000000000e+02 0.0000e+00 0.0000e+00
<mgrwt>
<rscale>  0 0.39958891E+03</rscale>
<asrwt>0</asrwt>
<pdfrwt beam="1">  1        4 0.10182244E+00 0.39958891E+03</pdfrwt>
<pdfrwt beam="2">  1       -4 0.24502103E-01 0.39958891E+03</pdfrwt>
<totfact> 0.24039158E+01</totfact>
</mgrwt>
</event>
<event>
 6      1 +2.6141198e-09 3.52141600e+02 7.81860800e-03 1.06173900e-01
        4 -1    0    0  501    0 +0.0000000000e+00 +0.0000000000e+00 +4.8316695241e+02 4.8316862150e+02 1.2700000000e+00 0.0000e+00 1.0000e+00
       -4 -1    0    0    0  501 -0.0000000000e+00 -0.0000000000e+00 -6.4153869428e+01 6.4166438755e+01 1.2700000000e+00 0.0000e+00 1.0000e+00
      -13  1    1    2    0    0 +4.1612573532e+00 -6.9013367160e+01 +5.0130340730e+01 8.5400369644e+01 1.0566000000e-01 0.0000e+00 -1.0000e+00
       13  1    1    2    0    0 -3.9737589072e+00 +3.0535111097e+01 +8.4358381062e+01 8.9802735977e+01 1.0566000000e-01 0.0000e+00 1.0000e+00
    10002  1    1    2    0    0 -3.1851226624e+01 -3.2237539001e+01 +1.0065050753e+02 1.4894389623e+02 1.0000000000e+02 0.0000e+00 0.0000e+00
   -10002  1    1    2    0    0 +3.1663728178e+01 +7.0715795065e+01 +1.8387385366e+02 2.2318805840e+02 1.0000000000e+02 0.0000e+00 0.0000e+00
<mgrwt>
<rscale>  0 0.35214160E+03</rscale>
<asrwt>0</asrwt>
<pdfrwt beam="1">  1        4 0.12079352E+00 0.35214160E+03</pdfrwt>
<pdfrwt beam="2">  1       -4 0.16040247E-01 0.35214160E+03</pdfrwt>
<totfact> 0.34234026E+01</totfact>
</mgrwt>
</event>
<event>
 6      1 +2.6141198e-09 4.95357600e+02 7.81860800e-03 1.01499800e-01
        4 -1    0    0  501    0 +0.0000000000e+00 +0.0000000000e+00 +6.8722313244e+02 6.8722430593e+02 1.2700000000e+00 0.0000e+00 -1.0000e+00
       -4 -1    0    0    0  501 -0.0000000000e+00 -0.0000000000e+00 -8.9258980938e+01 8.9268015426e+01 1.2700000000e+00 0.0000e+00 -1.0000e+00
      -13  1    1    2    0    0 +2.5370374507e+01 +4.3784311645e+01 +1.4431003082e+02 1.5292520396e+02 1.0566000000e-01 0.0000e+00 1.0000e+00
       13  1    1    2    0    0 -5.9242523399e+01 +6.0980894291e-01 +5.6387597574e+01 8.1790101906e+01 1.0566000000e-01 0.0000e+00 -1.0000e+00
    10002  1    1    2    0    0 +1.2177876341e+02 -5.0151458876e+01 +3.7066451043e+02 4.0587857216e+02 1.0000000000e+02 0.0000e+00 0.0000e+00
   -10002  1    1    2    0    0 -8.7906614520e+01 +5.7573382874e+00 +2.6602012685e+01 1.3589844333e+02 1.0000000000e+02 0.0000e+00 0.0000e+00
<mgrwt>
<rscale>  0 0.49535765E+03</rscale>
<asrwt>0</asrwt>
<pdfrwt beam="1">  1        4 0.17180705E+00 0.49535765E+03</pdfrwt>
<pdfrwt beam="2">  1       -4 0.22316022E-01 0.49535765E+03</pdfrwt>
<totfact> 0.76327001E+00</totfact>
</mgrwt>
</event>
<event>
 6      1 +2.6141198e-09 4.57764600e+02 7.81860800e-03 1.02543200e-01
        4 -1    0    0  501    0 +0.0000000000e+00 +0.0000000000e+00 +5.7852750833e+02 5.7852890229e+02 1.2700000000e+00 0.0000e+00 -1.0000e+00
       -4 -1    0    0    0  501 -0.0000000000e+00 -0.0000000000e+00 -9.0546540793e+01 9.0555446824e+01 1.2700000000e+00 0.0000e+00 -1.0000e+00
      -13  1    1    2    0    0 +5.3780193101e+01 -1.2188217304e+01 +1.0017747818e+02 1.1435208835e+02 1.0566000000e-01 0.0000e+00 1.0000e+00
       13  1    1    2    0    0 -3.7220156890e+01 +2.3208269736e+01 +5.0499450776e+01 6.6889233482e+01 1.0566000000e-01 0.0000e+00 -1.0000e+00
    10002  1    1    2    0    0 -1.6333819680e+01 +1.3622137242e+02 +1.2515911064e+02 2.1092145208e+02 1.0000000000e+02 0.0000e+00 0.0000e+00
   -10002  1    1    2    0    0 -2.2621653103e-01 -1.4724142486e+02 +2.1214492793e+02 2.7692157521e+02 1.0000000000e+02 0.0000e+00 0.0000e+00
<mgrwt>
<rscale>  0 0.45776461E+03</rscale>
<asrwt>0</asrwt>
<pdfrwt beam="1">  1        4 0.14463316E+00 0.45776461E+03</pdfrwt>
<pdfrwt beam="2">  1       -4 0.22637923E-01 0.45776461E+03</pdfrwt>
<totfact> 0.11762661E+01</totfact>
</mgrwt>
</event>
<event>
 6      1 +2.6141198e-09 6.21671400e+02 7.81860800e-03 9.86143800e-02
       -4 -1    0    0    0  501 -0.0000000000e+00 +0.0000000000e+00 +5.0117079654e+02 5.0117240567e+02 1.2700000000e+00 0.0000e+00 -1.0000e+00
        4 -1    0    0  501    0 +0.0000000000e+00 -0.0000000000e+00 -1.9278220351e+02 1.9278638669e+02 1.2700000000e+00 0.0000e+00 -1.0000e+00
      -13  1    1    2    0    0 +1.2048217100e+00 +3.1447955070e+01 -1.2921191341e+01 3.4020491224e+01 1.0566000000e-01 0.0000e+00 1.0000e+00
       13  1    1    2    0    0 +1.3499779179e+02 +2.7564073195e+01 +7.7542182834e+01 1.5810434277e+02 1.0566000000e-01 0.0000e+00 -1.0000e+00
    10002  1    1    2    0    0 -1.8472000150e+02 -8.3511356010e+01 -7.3121972566e+00 2.2616165406e+02 1.0000000000e+02 0.0000e+00 0.0000e+00
   -10002  1    1    2    0    0 +4.8517387996e+01 +2.4499327746e+01 +2.5107979879e+02 2.7567230430e+02 1.0000000000e+02 0.0000e+00 0.0000e+00
<mgrwt>
<rscale>  0 0.62167136E+03</rscale>
<asrwt>0</asrwt>
<pdfrwt beam="1">  1        4 0.48196275E-01 0.62167136E+03</pdfrwt>
<pdfrwt beam="2">  1       -4 0.12529342E+00 0.62167136E+03</pdfrwt>
<totfact> 0.38871316E+00</totfact>
</mgrwt>
</event>
<event>
 6      1 +2.6141198e-09 3.57469000e+02 7.81860800e-03 1.05959100e-01
        4 -1    0    0  501    0 +0.0000000000e+00 +0.0000000000e+00 +2.0826727730e+02 2.0827114945e+02 1.2700000000e+00 0.0000e+00 1.0000e+00
       -4 -1    0    0    0  501 -0.0000000000e+00 -0.0000000000e+00 -1.5338161075e+02 1.5338686846e+02 1.2700000000e+00 0.0000e+00 1.0000e+00
      -13  1    1    2    0    0 +1.8651472127e+01 +1.9316789305e+01 +2.2808809564e+01 3.5231643722e+01 1.0566000000e-01 0.0000e+00 -1.0000e+00
       13  1    1    2    0    0 -5.3652740847e+01 -6.7484237764e+01 +1.8226565570e+01 8.8118997971e+01 1.0566000000e-01 0.0000e+00 1.0000e+00
    10002  1    1    2    0    0 -1.2891534785e+01 +2.0017970218e+00 -3.7624552843e+01 1.0763738123e+02 1.0000000000e+02 0.0000e+00 0.0000e+00
   -10002  1    1    2    0    0 +4.7892803504e+01 +4.6165651437e+01 +5.1474844259e+01 1.3066999499e+02 1.0000000000e+02 0.0000e+00 0.0000e+00
<mgrwt>
<rscale>  0 0.35746900E+03</rscale>
<asrwt>0</asrwt>
<pdfrwt beam="1">  1        4 0.52067960E-01 0.35746900E+03</pdfrwt>
<pdfrwt beam="2">  1       -4 0.38346544E-01 0.35746900E+03</pdfrwt>
<totfact> 0.44488231E+01</totfact>
</mgrwt>
</event>
<event>
 6      1 +2.6141198e-09 4.98810200e+02 7.81860800e-03 1.01409000e-01
        4 -1    0    0  501    0 +0.0000000000e+00 +0.0000000000e+00 +1.0163229584e+02 1.0164023051e+02 1.2700000000e+00 0.0000e+00 -1.0000e+00
       -4 -1    0    0    0  501 -0.0000000000e+00 -0.0000000000e+00 -6.1200617994e+02 6.1200749766e+02 1.2700000000e+00 0.0000e+00 -1.0000e+00
      -13  1    1    2    0    0 +3.4995478359e+01 +2.4470417028e+01 -3.0658018104e+01 5.2568146754e+01 1.0566000000e-01 0.0000e+00 1.0000e+00
       13  1    1    2    0    0 -6.8980017409e+01 +1.3613629019e+01 -8.3012765280e+01 1.0878742602e+02 1.0566000000e-01 0.0000e+00 -1.0000e+00
    10002  1    1    2    0    0 -8.4318077852e+01 -1.4549661391e+02 -2.0849981633e+02 2.8592127644e+02 1.0000000000e+02 0.0000e+00 0.0000e+00
   -10002  1    1    2    0    0 +1.1830261690e+02 +1.0741256786e+02 -1.8820328438e+02 2.6637087895e+02 1.0000000000e+02 0.0000e+00 0.0000e+00
<mgrwt>
<rscale>  0 0.49881016E+03</rscale>
<asrwt>0</asrwt>
<pdfrwt beam="1">  1        4 0.25409232E-01 0.49881016E+03</pdfrwt>
<pdfrwt beam="2">  1       -4 0.15300269E+00 0.49881016E+03</pdfrwt>
<totfact> 0.81968917E+00</totfact>
</mgrwt>
</event>
<event>
 6      1 +2.6141198e-09 5.33409400e+02 7.81860800e-03 1.00540900e-01
        4 -1    0    0  501    0 +0.0000000000e+00 +0.0000000000e+00 +3.1643451671e+02 3.1643706526e+02 1.2700000000e+00 0.0000e+00 -1.0000e+00
       -4 -1    0    0    0  501 -0.0000000000e+00 -0.0000000000e+00 -2.2478503157e+02 2.2478861919e+02 1.2700000000e+00 0.0000e+00 -1.0000e+00
      -13  1    1    2    0    0 +2.4569883419e-02 -1.0572778892e+01 +7.2006220699e+00 1.2792356288e+01 1.0566000000e-01 0.0000e+00 -1.0000e+00
       13  1    1    2    0    0 -5.7795917363e+01 +1.0586633510e+02 +1.7791874149e+01 1.2192051067e+02 1.0566000000e-01 0.0000e+00 1.0000e+00
    10002  1    1    2    0    0 -4.7365030355e+01 +4.6668937878e+01 +1.4557629274e+02 1.8871643509e+02 1.0000000000e+02 0.0000e+00 0.0000e+00
   -10002  1    1    2    0    0 +1.0513637784e+02 -1.4196249409e+02 -7.8919303819e+01 2.1779638240e+02 1.0000000000e+02 0.0000e+00 0.0000e+00
<mgrwt>
<rscale>  0 0.53340942E+03</rscale>
<asrwt>0</asrwt>
<pdfrwt beam="1">  1        4 0.79109396E-01 0.53340942E+03</pdfrwt>
<pdfrwt beam="2">  1       -4 0.56197025E-01 0.53340942E+03</pdfrwt>
<totfact> 0.83763978E+00</totfact>
</mgrwt>
</event>
<event>
 6      1 +2.6141198e-09 8.76072100e+02 7.81860800e-03 9.45599700e-02
       -4 -1    0    0    0  501 -0.0000000000e+00 +0.0000000000e+00 +1.3545865804e+02 1.3546461139e+02 1.2700000000e+00 0.0000e+00 -1.0000e+00
        4 -1    0    0  501    0 +0.0000000000e+00 -0.0000000000e+00 -1.4164506192e+03 1.4164511886e+03 1.2700000000e+00 0.0000e+00 -1.0000e+00
      -13  1    1    2    0    0 +8.6504652533e+00 -3.4763250029e+01 -2.4278373829e+01 4.3275451488e+01 1.0566000000e-01 0.0000e+00 1.0000e+00
       13  1    1    2    0    0 -5.9475737385e+01 +8.1703248529e+01 -1.8422502857e+02 2.1012295560e+02 1.0566000000e-01 0.0000e+00 -1.0000e+00
    10002  1    1    2    0    0 +3.3468788876e+01 -1.6784358273e+02 -1.1170421335e+03 1.1344931714e+03 1.0000000000e+02 0.0000e+00 0.0000e+00
   -10002  1    1    2    0    0 +1.7356483256e+01 +1.2090358423e+02 +4.4553574702e+01 1.6402422141e+02 1.0000000000e+02 0.0000e+00 0.0000e+00
<mgrwt>
<rscale>  0 0.87607205E+03</rscale>
<asrwt>0</asrwt>
<pdfrwt beam="1">  1        4 0.35411342E+00 0.87607205E+03</pdfrwt>
<pdfrwt beam="2">  1       -4 0.33865484E-01 0.87607205E+03</pdfrwt>
<totfact> 0.24093237E-01</totfact>
</mgrwt>
</event>
<event>
 6      1 +2.6141198e-09 3.71239400e+02 7.81860800e-03 1.05422000e-01
       -4 -1    0    0    0  501 -0.0000000000e+00 +0.0000000000e+00 +1.3123257540e+02 1.3123872045e+02 1.2700000000e+00 0.0000e+00 1.0000e+00
        4 -1    0    0  501    0 +0.0000000000e+00 -0.0000000000e+00 -2.6253281007e+02 2.6253588186e+02 1.2700000000e+00 0.0000e+00 1.0000e+00
      -13  1    1    2    0    0 -4.9090705450e+01 -3.4144050132e+01 +1.9673379168e+01 6.2950508600e+01 1.0566000000e-01 0.0000e+00 -1.0000e+00
       13  1    1    2    0    0 +4.4586472078e+01 +2.0810727962e-01 -2.9129729999e+01 5.3259263372e+01 1.0566000000e-01 0.0000e+00 1.0000e+00
    10002  1    1    2    0    0 +6.5503879356e+01 +2.4679115927e+01 -2.3428012920e+01 1.2429275427e+02 1.0000000000e+02 0.0000e+00 0.0000e+00
   -10002  1    1    2    0    0 -6.0999645984e+01 +9.2568269259e+00 -9.8415870918e+01 1.5327207607e+02 1.0000000000e+02 0.0000e+00 0.0000e+00
<mgrwt>
<rscale>  0 0.37123939E+03</rscale>
<asrwt>0</asrwt>
<pdfrwt beam="1">  1        4 0.65634354E-01 0.37123939E+03</pdfrwt>
<pdfrwt beam="2">  1       -4 0.32809296E-01 0.37123939E+03</pdfrwt>
<totfact> 0.37047537E+01</totfact>
</mgrwt>
</event>
<event>
 6      1 +2.6141198e-09 3.86949000e+02 7.81860800e-03 1.04839500e-01
        4 -1    0    0  501    0 +0.0000000000e+00 +0.0000000000e+00 +1.8182328379e+02 1.8182771908e+02 1.2700000000e+00 0.0000e+00 -1.0000e+00
       -4 -1    0    0    0  501 -0.0000000000e+00 -0.0000000000e+00 -2.0586340038e+02 2.0586731775e+02 1.2700000000e+00 0.0000e+00 -1.0000e+00
      -13  1    1    2    0    0 -1.3574442060e+01 -5.8617951335e+01 +5.2737469154e+00 6.0399944259e+01 1.0566000000e-01 0.0000e+00 -1.0000e+00
       13  1    1    2    0    0 +4.5379507805e+01 +6.9632571593e+00 +1.7842281011e+01 4.9255911672e+01 1.0566000000e-01 0.0000e+00 1.0000e+00
    10002  1    1    2    0    0 -4.6972523940e+01 +3.6689352620e+01 -1.0822063379e+02 1.5894726226e+02 1.0000000000e+02 0.0000e+00 0.0000e+00
   -10002  1    1    2    0    0 +1.5167458195e+01 +1.4965341556e+01 +6.1064489271e+01 1.1909191864e+02 1.0000000000e+02 0.0000e+00 0.0000e+00
<mgrwt>
<rscale>  0 0.38694898E+03</rscale>
<asrwt>0</asrwt>
<pdfrwt beam="1">  1        4 0.45456865E-01 0.38694898E+03</pdfrwt>
<pdfrwt beam="2">  1       -4 0.51466894E-01 0.38694898E+03</pdfrwt>
<totfact> 0.32550175E+01</totfact>
</mgrwt>
</event>
<event>
 6      1 +2.6141198e-09 4.24226800e+02 7.81860800e-03 1.03569900e-01
       -4 -1    0    0    0  501 -0.0000000000e+00 +0.0000000000e+00 +2.0413500718e+02 2.0413895772e+02 1.2700000000e+00 0.0000e+00 -1.0000e+00
        4 -1    0    0  501    0 +0.0000000000e+00 -0.0000000000e+00 -2.2039573234e+02 2.2039939141e+02 1.2700000000e+00 0.0000e+00 -1.0000e+00
      -13  1    1    2    0    0 -1.4455033810e+01 +5.5781063233e+01 -4.4254985049e-01 5.7625359281e+01 1.0566000000e-01 0.0000e+00 1.0000e+00
       13  1    1    2    0    0 +2.4974185868e+01 -2.3470869132e+01 +3.6474928545e+01 5.0050207133e+01 1.0566000000e-01 0.0000e+00 -1.0000e+00
    10002  1    1    2    0    0 -5.5959895632e+01 +8.5719722390e+01 +1.1278955065e+01 1.4354997580e+02 1.0000000000e+02 0.0000e+00 0.0000e+00
   -10002  1    1    2    0    0 +4.5440743575e+01 -1.1802991649e+02 -6.3572058917e+01 1.7331280691e+02 1.0000000000e+02 0.0000e+00 0.0000e+00
<mgrwt>
<rscale>  0 0.42422682E+03</rscale>
<asrwt>0</asrwt>
<pdfrwt beam="1">  1        4 0.55099884E-01 0.42422682E+03</pdfrwt>
<pdfrwt beam="2">  1       -4 0.51034703E-01 0.42422682E+03</pdfrwt>
<totfact> 0.22357066E+01</totfact>
</mgrwt>
</event>
<event>
 6      1 +2.6141198e-09 6.05645500e+02 7.81860800e-03 9.89376200e-02
       -4 -1    0    0    0  501 -0.0000000000e+00 +0.0000000000e+00 +1.6256069072e+02 1.6256565156e+02 1.2700000000e+00 0.0000e+00 -1.0000e+00
        4 -1    0    0  501    0 +0.0000000000e+00 -0.0000000000e+00 -5.6409271905e+02 5.6409414869e+02 1.2700000000e+00 0.0000e+00 -1.0000e+00
      -13  1    1    2    0    0 -1.6852803459e+01 +4.5347985735e+01 -3.3342563948e+01 5.8755378727e+01 1.0566000000e-01 0.0000e+00 1.0000e+00
       13  1    1    2    0    0 +7.1298750976e+01 +4.6606405409e+01 -1.8297067358e+02 2.0182652817e+02 1.0566000000e-01 0.0000e+00 -1.0000e+00
    10002  1    1    2    0    0 -1.6542203953e+02 +1.3332900529e+01 -2.0520857046e+02 2.8222823174e+02 1.0000000000e+02 0.0000e+00 0.0000e+00
   -10002  1    1    2    0    0 +1.1097609201e+02 -1.0528729167e+02 +1.9989779668e+01 1.8384966162e+02 1.0000000000e+02 0.0000e+00 0.0000e+00
<mgrwt>
<rscale>  0 0.60564552E+03</rscale>
<asrwt>0</asrwt>
<pdfrwt beam="1">  1        4 0.14102397E+00 0.60564552E+03</pdfrwt>
<pdfrwt beam="2">  1       -4 0.40640973E-01 0.60564552E+03</pdfrwt>
<totfact> 0.40746352E+00</totfact>
</mgrwt>
</event>
<event>
 6      1 +2.6141198e-09 5.68859100e+02 7.81860800e-03 9.97220600e-02
       -4 -1    0    0    0  501 -0.0000000000e+00 +0.0000000000e+00 +1.8804382463e+02 1.8804811321e+02 1.2700000000e+00 0.0000e+00 1.0000e+00
        4 -1    0    0  501    0 +0.0000000000e+00 -0.0000000000e+00 -4.3020968837e+02 4.3021156292e+02 1.2700000000e+00 0.0000e+00 1.0000e+00
      -13  1    1    2    0    0 -1.0285316479e+02 +1.8545226494e+01 -4.5820568966e+01 1.1411500619e+02 1.0566000000e-01 0.0000e+00 1.0000e+00
       13  1    1    2    0    0 +2.3690865517e+01 -2.1754836015e+00 -4.0435979946e+01 4.6915556867e+01 1.0566000000e-01 0.0000e+00 -1.0000e+00
    10002  1    1    2    0    0 +4.4933745407e+01 -1.5977778494e+02 -1.9492990157e+02 2.7485568680e+02 1.0000000000e+02 0.0000e+00 0.0000e+00
   -10002  1    1    2    0    0 +3.4228553862e+01 +1.4340804205e+02 +3.9020586752e+01 1.8237342628e+02 1.0000000000e+02 0.0000e+00 0.0000e+00
<mgrwt>
<rscale>  0 0.56885914E+03</rscale>
<asrwt>0</asrwt>
<pdfrwt beam="1">  1        4 0.10755319E+00 0.56885914E+03</pdfrwt>
<pdfrwt beam="2">  1       -4 0.47011727E-01 0.56885914E+03</pdfrwt>
<totfact> 0.59500203E+00</totfact>
</mgrwt>
</event>
<event>
 6      1 +2.6141198e-09 5.51233500e+02 7.81860800e-03 1.00120900e-01
        4 -1    0    0  501    0 +0.0000000000e+00 +0.0000000000e+00 +3.4399998820e+02 3.4400233252e+02 1.2700000000e+00 0.0000e+00 -1.0000e+00
       -4 -1    0    0    0  501 -0.0000000000e+00 -0.0000000000e+00 -2.2082240016e+02 2.2082605216e+02 1.2700000000e+00 0.0000e+00 -1.0000e+00
      -13  1    1    2    0    0 +2.5051181131e+01 -3.5155732246e+01 +1.9172765485e+00 4.3210812295e+01 1.0566000000e-01 0.0000e+00 -1.0000e+00
       13  1    1    2    0    0 +7.4244762949e+01 +5.9053467695e+01 +6.9558823325e+01 1.1763519005e+02 1.0566000000e-01 0.0000e+00 1.0000e+00
    10002  1    1    2    0    0 +2.4891407348e+01 -5.2028813417e+01 +1.6856485741e+02 2.0430538598e+02 1.0000000000e+02 0.0000e+00 0.0000e+00
   -10002  1    1    2    0    0 -1.2418735143e+02 +2.8131077968e+01 -1.1686336925e+02 1.9967699636e+02 1.0000000000e+02 0.0000e+00 0.0000e+00
<mgrwt>
<rscale>  0 0.55123351E+03</rscale>
<asrwt>0</asrwt>
<pdfrwt beam="1">  1        4 0.86000746E-01 0.55123351E+03</pdfrwt>
<pdfrwt beam="2">  1       -4 0.55206350E-01 0.55123351E+03</pdfrwt>
<totfact> 0.71975018E+00</totfact>
</mgrwt>
</event>
<event>
 6      1 +2.6141198e-09 5.82175100e+02 7.81860800e-03 9.94309300e-02
        4 -1    0    0  501    0 +0.0000000000e+00 +0.0000000000e+00 +9.8521968381e+02 9.8522050235e+02 1.2700000000e+00 0.0000e+00 1.0000e+00
       -4 -1    0    0    0  501 -0.0000000000e+00 -0.0000000000e+00 -8.5997576460e+01 8.6006953539e+01 1.2700000000e+00 0.0000e+00 1.0000e+00
      -13  1    1    2    0    0 +4.2225230510e+01 +5.0231921905e+01 +6.5341399290e+01 9.2605214190e+01 1.0566000000e-01 0.0000e+00 1.0000e+00
       13  1    1    2    0    0 +3.1956896542e+00 -2.6526395692e+01 +1.3090554707e+02 1.3360439932e+02 1.0566000000e-01 0.0000e+00 -1.0000e+00
    10002  1    1    2    0    0 +1.3812687225e+02 +1.1893142556e+02 +3.9537935867e+02 4.4670857848e+02 1.0000000000e+02 0.0000e+00 0.0000e+00
   -10002  1    1    2    0    0 -1.8354779241e+02 -1.4263695177e+02 +3.0759580231e+02 3.9830926390e+02 1.0000000000e+02 0.0000e+00 0.0000e+00
<mgrwt>
<rscale>  0 0.58217511E+03</rscale>
<asrwt>0</asrwt>
<pdfrwt beam="1">  1        4 0.24630619E+00 0.58217511E+03</pdfrwt>
<pdfrwt beam="2">  1       -4 0.21500669E-01 0.58217511E+03</pdfrwt>
<totfact> 0.27168146E+00</totfact>
</mgrwt>
</event>
<event>
 6      1 +2.6141198e-09 4.57051900e+02 7.81860800e-03 1.02564000e-01
        4 -1    0    0  501    0 +0.0000000000e+00 +0.0000000000e+00 +2.6021193204e+02 2.6021503122e+02 1.2700000000e+00 0.0000e+00 1.0000e+00
       -4 -1    0    0    0  501 -0.0000000000e+00 -0.0000000000e+00 -2.0069207586e+02 2.0069609417e+02 1.2700000000e+00 0.0000e+00 1.0000e+00
      -13  1    1    2    0    0 +3.0196160146e+01 -1.6288949806e+00 +5.4579793591e+01 6.2397327017e+01 1.0566000000e-01 0.0000e+00 -1.0000e+00
       13  1    1    2    0    0 -5.4851191569e+01 +2.3989449689e+01 -1.6523789437e+01 6.2106309618e+01 1.0566000000e-01 0.0000e+00 1.0000e+00
    10002  1    1    2    0    0 +1.4023541708e+02 +2.8311230785e+01 +1.6282402114e+01 1.7530720068e+02 1.0000000000e+02 0.0000e+00 0.0000e+00
   -10002  1    1    2    0    0 -1.1558038566e+02 -5.0671785494e+01 +5.1814499049e+00 1.6110028807e+02 1.0000000000e+02 0.0000e+00 0.0000e+00
<mgrwt>
<rscale>  0 0.45705191E+03</rscale>
<asrwt>0</asrwt>
<pdfrwt beam="1">  1        4 0.65053872E-01 0.45705191E+03</pdfrwt>
<pdfrwt beam="2">  1       -4 0.50173909E-01 0.45705191E+03</pdfrwt>
<totfact> 0.16296110E+01</totfact>
</mgrwt>
</event>
<event>
 6      1 +2.6141198e-09 3.53459800e+02 7.81860800e-03 1.06120400e-01
       -4 -1    0    0    0  501 -0.0000000000e+00 +0.0000000000e+00 +3.0016864333e+02 3.0017132997e+02 1.2700000000e+00 0.0000e+00 -1.0000e+00
        4 -1    0    0  501    0 +0.0000000000e+00 -0.0000000000e+00 -1.0404602131e+02 1.0405377192e+02 1.2700000000e+00 0.0000e+00 -1.0000e+00
      -13  1    1    2    0    0 -1.7422660229e+01 +6.5088632411e+00 -6.0311854742e+00 1.9552512688e+01 1.0566000000e-01 0.0000e+00 -1.0000e+00
       13  1    1    2    0    0 +5.0944821022e+01 -3.8465053306e+01 +9.4136833835e+01 1.1373956991e+02 1.0566000000e-01 0.0000e+00 1.0000e+00
    10002  1    1    2    0    0 -7.8964575868e+01 +1.7344753521e+01 +9.3902765358e+01 1.5922931281e+02 1.0000000000e+02 0.0000e+00 0.0000e+00
   -10002  1    1    2    0    0 +4.5442415076e+01 +1.4611436544e+01 +1.4114208298e+01 1.1170370648e+02 1.0000000000e+02 0.0000e+00 0.0000e+00
<mgrwt>
<rscale>  0 0.35345983E+03</rscale>
<asrwt>0</asrwt>
<pdfrwt beam="1">  1        4 0.26012810E-01 0.35345983E+03</pdfrwt>
<pdfrwt beam="2">  1       -4 0.75043465E-01 0.35345983E+03</pdfrwt>
<totfact> 0.42883445E+01</totfact>
</mgrwt>
</event>
<event>
 6      1 +2.6141198e-09 3.71724700e+02 7.81860800e-03 1.05403500e-01
       -4 -1    0    0    0  501 -0.0000000000e+00 +0.0000000000e+00 +2.7456856939e+02 2.7457150653e+02 1.2700000000e+00 0.0000e+00 1.0000e+00
        4 -1    0    0  501    0 +0.0000000000e+00 -0.0000000000e+00 -1.2580808089e+02 1.2581449088e+02 1.2700000000e+00 0.0000e+00 1.0000e+00
      -13  1    1    2    0    0 +8.0418163992e+01 +1.1694303348e+01 +4.7323939235e+01 9.4039375898e+01 1.0566000000e-01 0.0000e+00 1.0000e+00
       13  1    1    2    0    0 -2.5080818834e+01 -4.4417535147e+00 -4.8763394616e+00 2.5933887064e+01 1.0566000000e-01 0.0000e+00 -1.0000e+00
    10002  1    1    2    0    0 +1.5415562903e+01 -5.0418471934e+01 +9.9093899416e+01 1.5033051185e+02 1.0000000000e+02 0.0000e+00 0.0000e+00
   -10002  1    1    2    0    0 -7.0752908061e+01 +4.3165922100e+01 +7.2189893156e+00 1.3008222260e+02 1.0000000000e+02 0.0000e+00 0.0000e+00
<mgrwt>
<rscale>  0 0.37172472E+03</rscale>
<asrwt>0</asrwt>
<pdfrwt beam="1">  1        4 0.31453189E-01 0.37172472E+03</pdfrwt>
<pdfrwt beam="2">  1       -4 0.68643310E-01 0.37172472E+03</pdfrwt>
<totfact> 0.36468438E+01</totfact>
</mgrwt>
</event>
<event>
 6      1 +2.6141198e-09 4.35050600e+02 7.81860800e-03 1.03227600e-01
        4 -1    0    0  501    0 +0.0000000000e+00 +0.0000000000e+00 +4.5628949261e+01 4.5646619926e+01 1.2700000000e+00 0.0000e+00 -1.0000e+00
       -4 -1    0    0    0  501 -0.0000000000e+00 -0.0000000000e+00 -1.0367820958e+03 1.0367828737e+03 1.2700000000e+00 0.0000e+00 -1.0000e+00
      -13  1    1    2    0    0 +5.5910370162e+01 -5.3197174034e+01 -3.4549279679e+02 3.5400733413e+02 1.0566000000e-01 0.0000e+00 -1.0000e+00
       13  1    1    2    0    0 -4.3231606607e+01 -2.9573313093e+01 -1.2206437193e+02 1.3282798920e+02 1.0566000000e-01 0.0000e+00 1.0000e+00
    10002  1    1    2    0    0 +5.2541414350e+01 -2.0574201197e+01 -3.0527379899e+02 3.2615332335e+02 1.0000000000e+02 0.0000e+00 0.0000e+00
   -10002  1    1    2    0    0 -6.5220177905e+01 +1.0334468832e+02 -2.1832217886e+02 2.6944084693e+02 1.0000000000e+02 0.0000e+00 0.0000e+00
<mgrwt>
<rscale>  0 0.43505063E+03</rscale>
<asrwt>0</asrwt>
<pdfrwt beam="1">  1        4 0.11409547E-01 0.43505063E+03</pdfrwt>
<pdfrwt beam="2">  1       -4 0.25919775E+00 0.43505063E+03</pdfrwt>
<totfact> 0.70722671E+00</totfact>
</mgrwt>
</event>
<event>
 6      1 +2.6141198e-09 3.97796300e+02 7.81860800e-03 1.04454500e-01
       -4 -1    0    0    0  501 -0.0000000000e+00 +0.0000000000e+00 +3.1291779336e+02 3.1292037055e+02 1.2700000000e+00 0.0000e+00 1.0000e+00
        4 -1    0    0  501    0 +0.0000000000e+00 -0.0000000000e+00 -1.2641823378e+02 1.2642461284e+02 1.2700000000e+00 0.0000e+00 1.0000e+00
      -13  1    1    2    0    0 -4.6627008748e+00 -4.4686816749e+01 -1.6159529713e+01 4.7747187720e+01 1.0566000000e-01 0.0000e+00 1.0000e+00
       13  1    1    2    0    0 +1.1089115494e+01 +7.1769251434e+01 +5.9354366535e+00 7.2863121716e+01 1.0566000000e-01 0.0000e+00 -1.0000e+00
    10002  1    1    2    0    0 +9.5363363000e+00 -1.7518722694e+01 +5.4721607945e+00 1.0211656035e+02 1.0000000000e+02 0.0000e+00 0.0000e+00
   -10002  1    1    2    0    0 -1.5962750920e+01 -9.5637119915e+00 +1.9125149185e+02 2.1661811360e+02 1.0000000000e+02 0.0000e+00 0.0000e+00
<mgrwt>
<rscale>  0 0.39779634E+03</rscale>
<asrwt>0</asrwt>
<pdfrwt beam="1">  1        4 0.31605678E-01 0.39779634E+03</pdfrwt>
<pdfrwt beam="2">  1       -4 0.78230567E-01 0.39779634E+03</pdfrwt>
<totfact> 0.27169875E+01</totfact>
</mgrwt>
</event>
<event>
 6      1 +2.6141198e-09 5.58543800e+02 7.81860800e-03 9.99535500e-02
       -4 -1    0    0    0  501 -0.0000000000e+00 +0.0000000000e+00 +8.5055006622e+02 8.5055101437e+02 1.2700000000e+00 0.0000e+00 -1.0000e+00
        4 -1    0    0  501    0 +0.0000000000e+00 -0.0000000000e+00 -9.1691507686e+01 9.1700302517e+01 1.2700000000e+00 0.0000e+00 -1.0000e+00
      -13  1    1    2    0    0 -4.3030200388e+01 +2.5697379943e+01 +1.3353028955e+01 5.1867793742e+01 1.0566000000e-01 0.0000e+00 -1.0000e+00
       13  1    1    2    0    0 -9.0985594359e+01 -8.8726237622e+01 +5.7456976476e+01 1.3947056655e+02 1.0566000000e-01 0.0000e+00 1.0000e+00
    10002  1    1    2    0    0 +3.9516017912e+01 +6.2260147830e+00 +1.0977227783e+02 1.5378631900e+02 1.0000000000e+02 0.0000e+00 0.0000e+00
   -10002  1    1    2    0    0 +9.4499776835e+01 +5.6802842897e+01 +5.7827627527e+02 5.9712663760e+02 1.0000000000e+02 0.0000e+00 0.0000e+00
<mgrwt>
<rscale>  0 0.55854385E+03</rscale>
<asrwt>0</asrwt>
<pdfrwt beam="1">  1        4 0.22924095E-01 0.55854385E+03</pdfrwt>
<pdfrwt beam="2">  1       -4 0.21263873E+00 0.55854385E+03</pdfrwt>
<totfact> 0.38974310E+00</totfact>
</mgrwt>
</event>
<event>
 6      1 +2.6141198e-09 6.22534900e+02 7.81860800e-03 9.85972600e-02
        4 -1    0    0  501    0 +0.0000000000e+00 +0.0000000000e+00 +2.0413329660e+02 2.0413724717e+02 1.2700000000e+00 0.0000e+00 1.0000e+00
       -4 -1    0    0    0  501 -0.0000000000e+00 -0.0000000000e+00 -4.7461879979e+02 4.7462049894e+02 1.2700000000e+00 0.0000e+00 1.0000e+00
      -13  1    1    2    0    0 +1.9293214435e+01 -1.2485884253e+02 +7.8006361732e+00 1.2658127733e+02 1.0566000000e-01 0.0000e+00 1.0000e+00
       13  1    1    2    0    0 -2.3938405171e+01 +1.1268403181e+01 -1.4174660938e+01 3.0015934587e+01 1.0566000000e-01 0.0000e+00 -1.0000e+00
    10002  1    1    2    0    0 -8.5925841762e+00 -1.3469415262e+02 -1.6768021205e+02 2.3734574099e+02 1.0000000000e+02 0.0000e+00 0.0000e+00
   -10002  1    1    2    0    0 +1.3237774913e+01 +2.4828459197e+02 -9.6431266370e+01 2.8481479320e+02 1.0000000000e+02 0.0000e+00 0.0000e+00
<mgrwt>
<rscale>  0 0.62253487E+03</rscale>
<asrwt>0</asrwt>
<pdfrwt beam="1">  1        4 0.51034031E-01 0.62253487E+03</pdfrwt>
<pdfrwt beam="2">  1       -4 0.11865540E+00 0.62253487E+03</pdfrwt>
<totfact> 0.39530576E+00</totfact>
</mgrwt>
</event>
<event>
 6      1 +2.6141198e-09 4.79764700e+02 7.81860800e-03 1.01920000e-01
       -4 -1    0    0    0  501 -0.0000000000e+00 +0.0000000000e+00 +1.0041197051e+02 1.0042000160e+02 1.2700000000e+00 0.0000e+00 -1.0000e+00
        4 -1    0    0  501    0 +0.0000000000e+00 -0.0000000000e+00 -5.7304291227e+02 5.7304431958e+02 1.2700000000e+00 0.0000e+00 -1.0000e+00
      -13  1    1    2    0    0 +1.2447688717e+01 -3.7842925909e+01 -1.7973673318e+02 1.8409871377e+02 1.0566000000e-01 0.0000e+00 -1.0000e+00
       13  1    1    2    0    0 +3.4149013228e+01 +4.4266403593e+01 -9.0617985462e+01 1.0647675824e+02 1.0566000000e-01 0.0000e+00 1.0000e+00
    10002  1    1    2    0    0 +1.0013958128e+02 +2.1927177074e+01 -6.8396904210e+01 1.5870372818e+02 1.0000000000e+02 0.0000e+00 0.0000e+00
   -10002  1    1    2    0    0 -1.4673628323e+02 -2.8350654758e+01 -1.3387931891e+02 2.2418512099e+02 1.0000000000e+02 0.0000e+00 0.0000e+00
<mgrwt>
<rscale>  0 0.47976472E+03</rscale>
<asrwt>0</asrwt>
<pdfrwt beam="1">  1        4 0.14326190E+00 0.47976472E+03</pdfrwt>
<pdfrwt beam="2">  1       -4 0.25104174E-01 0.47976472E+03</pdfrwt>
<totfact> 0.99526023E+00</totfact>
</mgrwt>
</event>
<event>
 6      1 +2.6141198e-09 4.17428200e+02 7.81860800e-03 1.03790700e-01
        4 -1    0    0  501    0 +0.0000000000e+00 +0.0000000000e+00 +4.8020874751e+02 4.8021042688e+02 1.2700000000e+00 0.0000e+00 -1.0000e+00
       -4 -1    0    0    0  501 -0.0000000000e+00 -0.0000000000e+00 -9.0707530263e+01 9.0716420489e+01 1.2700000000e+00 0.0000e+00 -1.0000e+00
      -13  1    1    2    0    0 -3.9224839593e+01 +1.2110101802e+01 +4.1289097261e+01 5.8224078554e+01 1.0566000000e-01 0.0000e+00 1.0000e+00
       13  1    1    2    0    0 +4.8692663443e+01 -4.4445827135e+01 +1.3247067359e+02 1.4796924528e+02 1.0566000000e-01 0.0000e+00 -1.0000e+00
    10002  1    1    2    0    0 +1.2575986808e+01 -5.5328184424e+01 +5.6487737085e+00 1.1511416976e+02 1.0000000000e+02 0.0000e+00 0.0000e+00
   -10002  1    1    2    0    0 -2.2043810657e+01 +8.7663909757e+01 +2.1009267269e+02 2.4961935378e+02 1.0000000000e+02 0.0000e+00 0.0000e+00
<mgrwt>
<rscale>  0 0.41742816E+03</rscale>
<asrwt>0</asrwt>
<pdfrwt beam="1">  1        4 0.12005351E+00 0.41742816E+03</pdfrwt>
<pdfrwt beam="2">  1       -4 0.22678204E-01 0.41742816E+03</pdfrwt>
<totfact> 0.18703130E+01</totfact>
</mgrwt>
</event>
<event>
 6      1 +2.6141198e-09 5.71020600e+02 7.81860800e-03 9.96742300e-02
       -3 -1    0    0    0  501 -0.0000000000e+00 +0.0000000000e+00 +1.1150599368e+02 1.1150603942e+02 1.0100000000e-01 0.0000e+00 -1.0000e+00
        3 -1    0    0  501    0 +0.0000000000e+00 -0.0000000000e+00 -7.3104694046e+02 7.3104694743e+02 1.0100000000e-01 0.0000e+00 -1.0000e+00
      -13  1    1    2    0    0 -2.7125127081e+01 +6.9792454010e+01 -2.7920384607e+01 7.9914442978e+01 1.0566000000e-01 0.0000e+00 1.0000e+00
       13  1    1    2    0    0 -1.0286442367e+01 -3.6798018012e+01 -3.6608243777e+01 5.2915779335e+01 1.0566000000e-01 0.0000e+00 -1.0000e+00
    10002  1    1    2    0    0 -1.3305075610e+02 -1.3977089771e+02 -2.5843942865e+02 3.3768231495e+02 1.0000000000e+02 0.0000e+00 0.0000e+00
   -10002  1    1    2    0    0 +1.7046232555e+02 +1.0677646171e+02 -2.9657288974e+02 3.7204044960e+02 1.0000000000e+02 0.0000e+00 0.0000e+00
<mgrwt>
<rscale>  0 0.57102062E+03</rscale>
<asrwt>0</asrwt>
<pdfrwt beam="1">  1        3 0.18276173E+00 0.57102062E+03</pdfrwt>
<pdfrwt beam="2">  1       -3 0.27876507E-01 0.57102062E+03</pdfrwt>
<totfact> 0.62610450E+00</totfact>
</mgrwt>
</event>
<event>
 6      1 +2.6141198e-09 6.87294200e+02 7.81860800e-03 9.73921100e-02
       -4 -1    0    0    0  501 -0.0000000000e+00 +0.0000000000e+00 +1.2236476666e+03 1.2236483257e+03 1.2700000000e+00 0.0000e+00 1.0000e+00
        4 -1    0    0  501    0 +0.0000000000e+00 -0.0000000000e+00 -9.6504409578e+01 9.6512765829e+01 1.2700000000e+00 0.0000e+00 1.0000e+00
      -13  1    1    2    0    0 +1.0965367632e+01 +2.5348763025e+01 +2.2956864494e+01 3.5914173604e+01 1.0566000000e-01 0.0000e+00 -1.0000e+00
       13  1    1    2    0    0 -4.6369924044e+01 -8.4684443216e+01 +7.5277598648e+01 1.2242692841e+02 1.0566000000e-01 0.0000e+00 1.0000e+00
    10002  1    1    2    0    0 -5.0983379780e+01 +2.9244010493e+01 -7.8322719419e+00 1.1625773801e+02 1.0000000000e+02 0.0000e+00 0.0000e+00
   -10002  1    1    2    0    0 +8.6387936192e+01 +3.0091669698e+01 +1.0367410658e+03 1.0455622515e+03 1.0000000000e+02 0.0000e+00 0.0000e+00
<mgrwt>
<rscale>  0 0.68729425E+03</rscale>
<asrwt>0</asrwt>
<pdfrwt beam="1">  1        4 0.24127229E-01 0.68729425E+03</pdfrwt>
<pdfrwt beam="2">  1       -4 0.30591305E+00 0.68729425E+03</pdfrwt>
<totfact> 0.94635611E-01</totfact>
</mgrwt>
</event>
<event>
 6      1 +2.6141198e-09 5.66987100e+02 7.81860800e-03 9.97636800e-02
       -4 -1    0    0    0  501 -0.0000000000e+00 +0.0000000000e+00 +1.0447443047e+03 1.0447450766e+03 1.2700000000e+00 0.0000e+00 1.0000e+00
        4 -1    0    0  501    0 +0.0000000000e+00 -0.0000000000e+00 -7.6920518701e+01 7.6931002185e+01 1.2700000000e+00 0.0000e+00 1.0000e+00
      -13  1    1    2    0    0 -7.1931929851e+01 +3.9132409932e+01 +4.1768646487e+02 4.2563780628e+02 1.0566000000e-01 0.0000e+00 -1.0000e+00
       13  1    1    2    0    0 -1.3733594444e+01 -1.2353631641e+01 +1.7785293230e+01 2.5642769944e+01 1.0566000000e-01 0.0000e+00 1.0000e+00
    10002  1    1    2    0    0 -9.4794744666e+01 +5.0800339391e+01 +3.6564435834e+02 3.9403364689e+02 1.0000000000e+02 0.0000e+00 0.0000e+00
   -10002  1    1    2    0    0 +1.8046026896e+02 -7.7579117683e+01 +1.6670766952e+02 2.7636185564e+02 1.0000000000e+02 0.0000e+00 0.0000e+00
<mgrwt>
<rscale>  0 0.56698708E+03</rscale>
<asrwt>0</asrwt>
<pdfrwt beam="1">  1        4 0.19231537E-01 0.56698708E+03</pdfrwt>
<pdfrwt beam="2">  1       -4 0.26118748E+00 0.56698708E+03</pdfrwt>
<totfact> 0.27118757E+00</totfact>
</mgrwt>
</event>
<event>
 6      1 +2.6141198e-09 3.22120400e+02 7.81860800e-03 1.07467800e-01
        4 -1    0    0  501    0 +0.0000000000e+00 +0.0000000000e+00 +3.1451852820e+02 3.1452109227e+02 1.2700000000e+00 0.0000e+00 -1.0000e+00
       -4 -1    0    0    0  501 -0.0000000000e+00 -0.0000000000e+00 -8.2468714540e+01 8.2478492820e+01 1.2700000000e+00 0.0000e+00 -1.0000e+00
      -13  1    1    2    0    0 +4.5668644146e+01 +5.8583341106e+00 +1.4782742846e+01 4.8357892704e+01 1.0566000000e-01 0.0000e+00 1.0000e+00
       13  1    1    2    0    0 -2.0305347792e+01 -7.2483404253e+00 +6.9945329134e+01 7.3192935585e+01 1.0566000000e-01 0.0000e+00 -1.0000e+00
    10002  1    1    2    0    0 +1.5056645261e+01 +5.1087536504e+01 +8.2481183359e+01 1.4014201569e+02 1.0000000000e+02 0.0000e+00 0.0000e+00
   -10002  1    1    2    0    0 -4.0419941615e+01 -4.9697530189e+01 +6.4840558323e+01 1.3530674111e+02 1.0000000000e+02 0.0000e+00 0.0000e+00
<mgrwt>
<rscale>  0 0.32212040E+03</rscale>
<asrwt>0</asrwt>
<pdfrwt beam="1">  1        4 0.78631174E-01 0.32212040E+03</pdfrwt>
<pdfrwt beam="2">  1       -4 0.20618722E-01 0.32212040E+03</pdfrwt>
<totfact> 0.59025897E+01</totfact>
</mgrwt>
</event>
<event>
 6      1 +2.6141198e-09 5.02871300e+02 7.81860800e-03 1.01303200e-01
       -4 -1    0    0    0  501 -0.0000000000e+00 +0.0000000000e+00 +8.2059362525e+02 8.2059460801e+02 1.2700000000e+00 0.0000e+00 1.0000e+00
        4 -1    0    0  501    0 +0.0000000000e+00 -0.0000000000e+00 -7.7035392300e+01 7.7045860153e+01 1.2700000000e+00 0.0000e+00 1.0000e+00
      -13  1    1    2    0    0 +9.7102193922e+00 +1.6634012318e+01 +6.1829555051e+01 6.4760202040e+01 1.0566000000e-01 0.0000e+00 -1.0000e+00
       13  1    1    2    0    0 -4.0367386640e+01 -7.3882733751e+01 +5.8712278232e+01 1.0264174117e+02 1.0566000000e-01 0.0000e+00 1.0000e+00
    10002  1    1    2    0    0 -1.0727955994e+02 +1.2573953191e+02 +2.6574741109e+02 3.2854378759e+02 1.0000000000e+02 0.0000e+00 0.0000e+00
   -10002  1    1    2    0    0 +1.3793672719e+02 -6.8490810475e+01 +3.5726898858e+02 4.0169473737e+02 1.0000000000e+02 0.0000e+00 0.0000e+00
<mgrwt>
<rscale>  0 0.50287132E+03</rscale>
<asrwt>0</asrwt>
<pdfrwt beam="1">  1        4 0.19260279E-01 0.50287132E+03</pdfrwt>
<pdfrwt beam="2">  1       -4 0.20514984E+00 0.50287132E+03</pdfrwt>
<totfact> 0.59977426E+00</totfact>
</mgrwt>
</event>
<event>
 6      1 +2.6141198e-09 3.98234600e+02 7.81860800e-03 1.04439300e-01
       -4 -1    0    0    0  501 -0.0000000000e+00 +0.0000000000e+00 +3.4318840121e+02 3.4319075108e+02 1.2700000000e+00 0.0000e+00 1.0000e+00
        4 -1    0    0  501    0 +0.0000000000e+00 -0.0000000000e+00 -1.1552125576e+02 1.1552823652e+02 1.2700000000e+00 0.0000e+00 1.0000e+00
      -13  1    1    2    0    0 +4.8221048127e+01 -3.9355106692e+01 -8.6613912539e+00 6.2842062090e+01 1.0566000000e-01 0.0000e+00 1.0000e+00
       13  1    1    2    0    0 +4.2296789308e+01 +1.9748814310e+01 +7.0248871805e+01 8.4344230427e+01 1.0566000000e-01 0.0000e+00 -1.0000e+00
    10002  1    1    2    0    0 +1.9979835109e-01 -1.6227707348e+01 +1.3437983822e+02 1.6828939160e+02 1.0000000000e+02 0.0000e+00 0.0000e+00
   -10002  1    1    2    0    0 -9.0717635786e+01 +3.5833999730e+01 +3.1699826675e+01 1.4324330348e+02 1.0000000000e+02 0.0000e+00 0.0000e+00
<mgrwt>
<rscale>  0 0.39823458E+03</rscale>
<asrwt>0</asrwt>
<pdfrwt beam="1">  1        4 0.28881480E-01 0.39823458E+03</pdfrwt>
<pdfrwt beam="2">  1       -4 0.85798266E-01 0.39823458E+03</pdfrwt>
<totfact> 0.26221055E+01</totfact>
</mgrwt>
</event>
<event>
 6      1 +2.6141198e-09 4.19626100e+02 7.81860800e-03 1.03718800e-01
        4 -1    0    0  501    0 +0.0000000000e+00 +0.0000000000e+00 +1.6429162270e+02 1.6429653127e+02 1.2700000000e+00 0.0000e+00 -1.0000e+00
       -4 -1    0    0    0  501 -0.0000000000e+00 -0.0000000000e+00 -2.6793696744e+02 2.6793997727e+02 1.2700000000e+00 0.0000e+00 -1.0000e+00
      -13  1    1    2    0    0 +2.8828472939e+01 +3.3066977043e+01 -5.7803959884e+00 4.4248502399e+01 1.0566000000e-01 0.0000e+00 1.0000e+00
       13  1    1    2    0    0 +7.0553940963e+01 -4.1318056293e+01 +2.3653380979e+01 8.5114828068e+01 1.0566000000e-01 0.0000e+00 -1.0000e+00
    10002  1    1    2    0    0 -9.0047764548e+01 +2.9285336493e+01 +7.6215700184e+00 1.3792867419e+02 1.0000000000e+02 0.0000e+00 0.0000e+00
   -10002  1    1    2    0    0 -9.3346493542e+00 -2.1034257243e+01 -1.2913989975e+02 1.6494450389e+02 1.0000000000e+02 0.0000e+00 0.0000e+00
<mgrwt>
<rscale>  0 0.41962607E+03</rscale>
<asrwt>0</asrwt>
<pdfrwt beam="1">  1        4 0.41073896E-01 0.41962607E+03</pdfrwt>
<pdfrwt beam="2">  1       -4 0.66985231E-01 0.41962607E+03</pdfrwt>
<totfact> 0.22916888E+01</totfact>
</mgrwt>
</event>
<event>
 6      1 +2.6141198e-09 4.18669700e+02 7.81860800e-03 1.03750000e-01
       -4 -1    0    0    0  501 -0.0000000000e+00 +0.0000000000e+00 +2.3001829173e+02 2.3002179772e+02 1.2700000000e+00 0.0000e+00 1.0000e+00
        4 -1    0    0  501    0 +0.0000000000e+00 -0.0000000000e+00 -1.9050424894e+02 1.9050848213e+02 1.2700000000e+00 0.0000e+00 1.0000e+00
      -13  1    1    2    0    0 +1.0511819153e+01 +5.6109784092e+01 -3.8193615797e+01 6.8684566421e+01 1.0566000000e-01 0.0000e+00 -1.0000e+00
       13  1    1    2    0    0 -2.6129201341e+01 -3.6732857459e+01 -8.9566669899e+00 4.5959449816e+01 1.0566000000e-01 0.0000e+00 1.0000e+00
    10002  1    1    2    0    0 +1.9195966678e+01 -1.0862455923e+02 +5.1643195888e+00 1.4897801919e+02 1.0000000000e+02 0.0000e+00 0.0000e+00
   -10002  1    1    2    0    0 -3.5785844906e+00 +8.9247632601e+01 +8.1500005988e+01 1.5690824442e+02 1.0000000000e+02 0.0000e+00 0.0000e+00
<mgrwt>
<rscale>  0 0.41866975E+03</rscale>
<asrwt>0</asrwt>
<pdfrwt beam="1">  1        4 0.47627030E-01 0.41866975E+03</pdfrwt>
<pdfrwt beam="2">  1       -4 0.57505540E-01 0.41866975E+03</pdfrwt>
<totfact> 0.23547642E+01</totfact>
</mgrwt>
</event>
<event>
 6      1 +2.6141198e-09 3.43165400e+02 7.81860800e-03 1.06545600e-01
       -4 -1    0    0    0  501 -0.0000000000e+00 +0.0000000000e+00 +1.9724534734e+02 1.9724943586e+02 1.2700000000e+00 0.0000e+00 -1.0000e+00
        4 -1    0    0  501    0 +0.0000000000e+00 -0.0000000000e+00 -1.4925057264e+02 1.4925597587e+02 1.2700000000e+00 0.0000e+00 -1.0000e+00
      -13  1    1    2    0    0 -2.2029023729e+01 -2.5278514422e+00 -4.9950500951e+01 5.4650998423e+01 1.0566000000e-01 0.0000e+00 -1.0000e+00
       13  1    1    2    0    0 +1.8195088471e+01 +1.0896790058e+01 +3.6946975095e+01 4.2601542351e+01 1.0566000000e-01 0.0000e+00 1.0000e+00
    10002  1    1    2    0    0 +5.2583470394e+01 +3.6535281273e+01 +1.0898994981e+01 1.1924192311e+02 1.0000000000e+02 0.0000e+00 0.0000e+00
   -10002  1    1    2    0    0 -4.8749535136e+01 -4.4904219889e+01 +5.0099305582e+01 1.3001094784e+02 1.0000000000e+02 0.0000e+00 0.0000e+00
<mgrwt>
<rscale>  0 0.34316541E+03</rscale>
<asrwt>0</asrwt>
<pdfrwt beam="1">  1        4 0.37313830E-01 0.34316541E+03</pdfrwt>
<pdfrwt beam="2">  1       -4 0.49312523E-01 0.34316541E+03</pdfrwt>
<totfact> 0.52397235E+01</totfact>
</mgrwt>
</event>
<event>
 6      1 +2.6141198e-09 4.44633500e+02 7.81860800e-03 1.02933500e-01
        4 -1    0    0  501    0 +0.0000000000e+00 +0.0000000000e+00 +1.7693562004e+02 1.7694017786e+02 1.2700000000e+00 0.0000e+00 -1.0000e+00
       -4 -1    0    0    0  501 -0.0000000000e+00 -0.0000000000e+00 -2.7932781386e+02 2.7933070095e+02 1.2700000000e+00 0.0000e+00 -1.0000e+00
      -13  1    1    2    0    0 -8.5906690673e+01 -8.3287469688e+00 +1.0787039569e+01 8.6981026179e+01 1.0566000000e-01 0.0000e+00 1.0000e+00
       13  1    1    2    0    0 +3.2573371363e+01 -4.9735294511e+00 -1.8781754897e+01 3.7927905270e+01 1.0566000000e-01 0.0000e+00 -1.0000e+00
    10002  1    1    2    0    0 -2.7293303847e+01 +5.3889291869e+01 +5.5911451018e+01 1.2951861089e+02 1.0000000000e+02 0.0000e+00 0.0000e+00
   -10002  1    1    2    0    0 +8.0626623158e+01 -4.0587015450e+01 -1.5030892950e+02 2.0184333646e+02 1.0000000000e+02 0.0000e+00 0.0000e+00
<mgrwt>
<rscale>  0 0.44463350E+03</rscale>
<asrwt>0</asrwt>
<pdfrwt beam="1">  1        4 0.44234836E-01 0.44463350E+03</pdfrwt>
<pdfrwt beam="2">  1       -4 0.69832884E-01 0.44463350E+03</pdfrwt>
<totfact> 0.18059633E+01</totfact>
</mgrwt>
</event>
<event>
 6      1 +2.6141198e-09 3.70848500e+02 7.81860800e-03 1.05436900e-01
        4 -1    0    0  501    0 +0.0000000000e+00 +0.0000000000e+00 +4.1603734903e+02 4.1603928743e+02 1.2700000000e+00 0.0000e+00 -1.0000e+00
       -4 -1    0    0    0  501 -0.0000000000e+00 -0.0000000000e+00 -8.2634955448e+01 8.2644714059e+01 1.2700000000e+00 0.0000e+00 -1.0000e+00
      -13  1    1    2    0    0 -6.9998449893e+00 -1.8017634725e+01 -1.7783620394e+01 2.6265972461e+01 1.0566000000e-01 0.0000e+00 1.0000e+00
       13  1    1    2    0    0 +3.7021262686e+01 -7.6598063087e+01 +9.9506733248e+01 1.3091767751e+02 1.0566000000e-01 0.0000e+00 -1.0000e+00
    10002  1    1    2    0    0 -2.6721040838e+00 +2.1766222433e+01 +9.1865306293e+01 1.3755051101e+02 1.0000000000e+02 0.0000e+00 0.0000e+00
   -10002  1    1    2    0    0 -2.7349313613e+01 +7.2849475379e+01 +1.5981397443e+02 2.0394984051e+02 1.0000000000e+02 0.0000e+00 0.0000e+00
<mgrwt>
<rscale>  0 0.37084846E+03</rscale>
<asrwt>0</asrwt>
<pdfrwt beam="1">  1        4 0.10401080E+00 0.37084846E+03</pdfrwt>
<pdfrwt beam="2">  1       -4 0.20660201E-01 0.37084846E+03</pdfrwt>
<totfact> 0.31197297E+01</totfact>
</mgrwt>
</event>
<event>
 6      1 +2.6141198e-09 4.37522900e+02 7.81860800e-03 1.03151000e-01
       -4 -1    0    0    0  501 -0.0000000000e+00 +0.0000000000e+00 +1.5560884516e+03 1.5560889699e+03 1.2700000000e+00 0.0000e+00 1.0000e+00
        4 -1    0    0  501    0 +0.0000000000e+00 -0.0000000000e+00 -3.0740770328e+01 3.0766993034e+01 1.2700000000e+00 0.0000e+00 1.0000e+00
      -13  1    1    2    0    0 -3.1318684124e+01 +1.5312518174e+00 +5.7122182962e+01 6.5162563315e+01 1.0566000000e-01 0.0000e+00 1.0000e+00
       13  1    1    2    0    0 +1.2444428959e+01 -4.5526582572e+01 +1.2024911140e+02 1.2917969457e+02 1.0566000000e-01 0.0000e+00 -1.0000e+00
    10002  1    1    2    0    0 +1.4368791777e+02 +4.6346727412e+01 +5.6302920726e+02 5.9143564746e+02 1.0000000000e+02 0.0000e+00 0.0000e+00
   -10002  1    1    2    0    0 -1.2481366261e+02 -2.3513966581e+00 +7.8494717969e+02 8.0107805759e+02 1.0000000000e+02 0.0000e+00 0.0000e+00
<mgrwt>
<rscale>  0 0.43752291E+03</rscale>
<asrwt>0</asrwt>
<pdfrwt beam="1">  1        4 0.76885358E-02 0.43752291E+03</pdfrwt>
<pdfrwt beam="2">  1       -4 0.38902542E+00 0.43752291E+03</pdfrwt>
<totfact> 0.21705897E+00</totfact>
</mgrwt>
</event>
<event>
 6      1 +2.6141198e-09 5.07072100e+02 7.81860800e-03 1.01194900e-01
       -4 -1    0    0    0  501 -0.0000000000e+00 +0.0000000000e+00 +6.2664552060e+01 6.2677420056e+01 1.2700000000e+00 0.0000e+00 1.0000e+00
        4 -1    0    0  501    0 +0.0000000000e+00 -0.0000000000e+00 -1.0256693388e+03 1.0256701251e+03 1.2700000000e+00 0.0000e+00 1.0000e+00
      -13  1    1    2    0    0 +2.3412436289e+01 +1.2951622548e+02 -1.0287707308e+02 1.6705178289e+02 1.0566000000e-01 0.0000e+00 -1.0000e+00
       13  1    1    2    0    0 -4.1842917652e+01 -1.8244970801e+01 -3.5083173642e+01 5.7572119589e+01 1.0566000000e-01 0.0000e+00 1.0000e+00
    10002  1    1    2    0    0 +5.9369585328e+01 -3.8303322541e+01 -4.6300283632e+02 4.7891911491e+02 1.0000000000e+02 0.0000e+00 0.0000e+00
   -10002  1    1    2    0    0 -4.0939103965e+01 -7.2967932141e+01 -3.6204170370e+02 3.8480452775e+02 1.0000000000e+02 0.0000e+00 0.0000e+00
<mgrwt>
<rscale>  0 0.50707214E+03</rscale>
<asrwt>0</asrwt>
<pdfrwt beam="1">  1        4 0.25641899E+00 0.50707214E+03</pdfrwt>
<pdfrwt beam="2">  1       -4 0.15667848E-01 0.50707214E+03</pdfrwt>
<totfact> 0.42047057E+00</totfact>
</mgrwt>
</event>
<event>
 6      1 +2.6141198e-09 3.27346400e+02 7.81860800e-03 1.07231700e-01
       -4 -1    0    0    0  501 -0.0000000000e+00 +0.0000000000e+00 +1.1616701379e+02 1.1617395575e+02 1.2700000000e+00 0.0000e+00 -1.0000e+00
        4 -1    0    0  501    0 +0.0000000000e+00 -0.0000000000e+00 -2.3059131456e+02 2.3059481184e+02 1.2700000000e+00 0.0000e+00 -1.0000e+00
      -13  1    1    2    0    0 -9.6147232010e+00 +3.5155355294e+01 -5.1574980488e+01 6.3153239699e+01 1.0566000000e-01 0.0000e+00 1.0000e+00
       13  1    1    2    0    0 -2.8593643586e+01 -7.8383127876e+00 +1.1256968763e+01 3.1713815769e+01 1.0566000000e-01 0.0000e+00 -1.0000e+00
    10002  1    1    2    0    0 +1.8865514025e+00 +3.7860519225e+01 -3.1420661633e-01 1.0694426922e+02 1.0000000000e+02 0.0000e+00 0.0000e+00
   -10002  1    1    2    0    0 +3.6321815384e+01 -6.5177561731e+01 -7.3792082421e+01 1.4495744291e+02 1.0000000000e+02 0.0000e+00 0.0000e+00
<mgrwt>
<rscale>  0 0.32734639E+03</rscale>
<asrwt>0</asrwt>
<pdfrwt beam="1">  1        4 0.57649133E-01 0.32734639E+03</pdfrwt>
<pdfrwt beam="2">  1       -4 0.29043059E-01 0.32734639E+03</pdfrwt>
<totfact> 0.61248972E+01</totfact>
</mgrwt>
</event>
<event>
 6      1 +2.6141198e-09 3.76100100e+02 7.81860800e-03 1.05238500e-01
       -4 -1    0    0    0  501 -0.0000000000e+00 +0.0000000000e+00 +2.1104417786e+02 2.1104799906e+02 1.2700000000e+00 0.0000e+00 1.0000e+00
        4 -1    0    0  501    0 +0.0000000000e+00 -0.0000000000e+00 -1.6755344273e+02 1.6755825575e+02 1.2700000000e+00 0.0000e+00 1.0000e+00
      -13  1    1    2    0    0 -5.0265529422e+01 -1.9812985237e+01 +7.8210607377e+01 9.5058340520e+01 1.0566000000e-01 0.0000e+00 -1.0000e+00
       13  1    1    2    0    0 +2.1715785316e+01 -1.0296813231e+01 -5.6387221742e+00 2.4686150903e+01 1.0566000000e-01 0.0000e+00 1.0000e+00
    10002  1    1    2    0    0 +8.4376561199e+01 -2.8965567288e+00 +1.5113208684e+01 1.3174294363e+02 1.0000000000e+02 0.0000e+00 0.0000e+00
   -10002  1    1    2    0    0 -5.5826817093e+01 +3.3006355197e+01 -4.4194358761e+01 1.2711881976e+02 1.0000000000e+02 0.0000e+00 0.0000e+00
<mgrwt>
<rscale>  0 0.37610006E+03</rscale>
<asrwt>0</asrwt>
<pdfrwt beam="1">  1        4 0.41889440E-01 0.37610006E+03</pdfrwt>
<pdfrwt beam="2">  1       -4 0.52762123E-01 0.37610006E+03</pdfrwt>
<totfact> 0.36402100E+01</totfact>
</mgrwt>
</event>
<event>
 6      1 +2.6141198e-09 5.61110600e+02 7.81860800e-03 9.98954500e-02
       -4 -1    0    0    0  501 -0.0000000000e+00 +0.0000000000e+00 +1.9427963108e+02 1.9428378201e+02 1.2700000000e+00 0.0000e+00 1.0000e+00
        4 -1    0    0  501    0 +0.0000000000e+00 -0.0000000000e+00 -4.0513473607e+02 4.0513672663e+02 1.2700000000e+00 0.0000e+00 1.0000e+00
      -13  1    1    2    0    0 -3.3681591266e+01 +4.6257104386e+01 -5.4789602511e+01 7.9221720530e+01 1.0566000000e-01 0.0000e+00 -1.0000e+00
       13  1    1    2    0    0 +5.7846423412e+01 +2.4402361486e+01 -3.3641178397e+01 7.1227972003e+01 1.0566000000e-01 0.0000e+00 1.0000e+00
    10002  1    1    2    0    0 -1.0875851726e+02 -1.9713115465e+02 -4.1920584539e+01 2.4989286228e+02 1.0000000000e+02 0.0000e+00 0.0000e+00
   -10002  1    1    2    0    0 +8.4593685110e+01 +1.2647168878e+02 -8.0503739542e+01 1.9907795383e+02 1.0000000000e+02 0.0000e+00 0.0000e+00
<mgrwt>
<rscale>  0 0.56111057E+03</rscale>
<asrwt>0</asrwt>
<pdfrwt beam="1">  1        4 0.10128445E+00 0.56111057E+03</pdfrwt>
<pdfrwt beam="2">  1       -4 0.48570676E-01 0.56111057E+03</pdfrwt>
<totfact> 0.64235237E+00</totfact>
</mgrwt>
</event>
<event>
 6      1 +2.6141198e-09 4.61920900e+02 7.81860800e-03 1.02422600e-01
       -4 -1    0    0    0  501 -0.0000000000e+00 +0.0000000000e+00 +5.4527591891e+01 5.4542379645e+01 1.2700000000e+00 0.0000e+00 -1.0000e+00
        4 -1    0    0  501    0 +0.0000000000e+00 -0.0000000000e+00 -9.7812253572e+02 9.7812336021e+02 1.2700000000e+00 0.0000e+00 -1.0000e+00
      -13  1    1    2    0    0 -4.6064596134e+01 -2.0948754468e+01 -2.7204081577e+02 2.7670745191e+02 1.0566000000e-01 0.0000e+00 -1.0000e+00
       13  1    1    2    0    0 +2.0154999002e+01 +2.8803658790e+00 -3.0918018946e+01 3.7019664395e+01 1.0566000000e-01 0.0000e+00 1.0000e+00
    10002  1    1    2    0    0 -7.8484069817e+01 +1.2773193656e+02 -2.7976702748e+02 3.3278339277e+02 1.0000000000e+02 0.0000e+00 0.0000e+00
   -10002  1    1    2    0    0 +1.0439366695e+02 -1.0966354797e+02 -3.4086908163e+02 3.8615523078e+02 1.0000000000e+02 0.0000e+00 0.0000e+00
<mgrwt>
<rscale>  0 0.46192089E+03</rscale>
<asrwt>0</asrwt>
<pdfrwt beam="1">  1        4 0.24453253E+00 0.46192089E+03</pdfrwt>
<pdfrwt beam="2">  1       -4 0.13633853E-01 0.46192089E+03</pdfrwt>
<totfact> 0.63505314E+00</totfact>
</mgrwt>
</event>
<event>
 6      1 +2.6141198e-09 3.87887300e+02 7.81860800e-03 1.04805600e-01
       -4 -1    0    0    0  501 -0.0000000000e+00 +0.0000000000e+00 +1.7739276477e+02 1.7739731084e+02 1.2700000000e+00 0.0000e+00 1.0000e+00
        4 -1    0    0  501    0 +0.0000000000e+00 -0.0000000000e+00 -2.1202960408e+02 2.1203340753e+02 1.2700000000e+00 0.0000e+00 1.0000e+00
      -13  1    1    2    0    0 -1.6098865086e+01 -7.6946084874e+01 -1.7767101880e+01 8.0595002995e+01 1.0566000000e-01 0.0000e+00 1.0000e+00
       13  1    1    2    0    0 +6.4068261894e+01 -1.4107955522e+01 -1.7018083325e+01 6.7774648027e+01 1.0566000000e-01 0.0000e+00 -1.0000e+00
    10002  1    1    2    0    0 -2.5217553767e+01 +6.2359415620e+01 -4.0398712120e+01 1.2710892052e+02 1.0000000000e+02 0.0000e+00 0.0000e+00
   -10002  1    1    2    0    0 -2.2751843040e+01 +2.8694624776e+01 +4.0547058014e+01 1.1395214683e+02 1.0000000000e+02 0.0000e+00 0.0000e+00
<mgrwt>
<rscale>  0 0.38788732E+03</rscale>
<asrwt>0</asrwt>
<pdfrwt beam="1">  1        4 0.53008445E-01 0.38788732E+03</pdfrwt>
<pdfrwt beam="2">  1       -4 0.44349235E-01 0.38788732E+03</pdfrwt>
<totfact> 0.32188384E+01</totfact>
</mgrwt>
</event>
<event>
 6      1 +2.6141198e-09 4.40027000e+02 7.81860800e-03 1.03073900e-01
        4 -1    0    0  501    0 +0.0000000000e+00 +0.0000000000e+00 +4.8620367123e+02 4.8620532990e+02 1.2700000000e+00 0.0000e+00 1.0000e+00
       -4 -1    0    0    0  501 -0.0000000000e+00 -0.0000000000e+00 -9.9553102072e+01 9.9561202445e+01 1.2700000000e+00 0.0000e+00 1.0000e+00
      -13  1    1    2    0    0 +4.9829325916e+01 +1.4989233439e+00 +8.0175695632e+00 5.0492584388e+01 1.0566000000e-01 0.0000e+00 1.0000e+00
       13  1    1    2    0    0 -4.2465761951e+01 +1.1858875094e-01 +7.6647255370e+01 8.7625155756e+01 1.0566000000e-01 0.0000e+00 -1.0000e+00
    10002  1    1    2    0    0 -1.7204304555e+00 -1.2659362211e+02 +9.9771816970e+01 1.8969270018e+02 1.0000000000e+02 0.0000e+00 0.0000e+00
   -10002  1    1    2    0    0 -5.6431335104e+00 +1.2497611002e+02 +2.0221392726e+02 2.5795609201e+02 1.0000000000e+02 0.0000e+00 0.0000e+00
<mgrwt>
<rscale>  0 0.44002701E+03</rscale>
<asrwt>0</asrwt>
<pdfrwt beam="1">  1        4 0.12155214E+00 0.44002701E+03</pdfrwt>
<pdfrwt beam="2">  1       -4 0.24889496E-01 0.44002701E+03</pdfrwt>
<totfact> 0.15281464E+01</totfact>
</mgrwt>
</event>
<event>
 6      1 +2.6141198e-09 5.52101100e+02 7.81860800e-03 1.00100900e-01
       -4 -1    0    0    0  501 -0.0000000000e+00 +0.0000000000e+00 +7.3071023199e+02 7.3071133565e+02 1.2700000000e+00 0.0000e+00 1.0000e+00
        4 -1    0    0  501    0 +0.0000000000e+00 -0.0000000000e+00 -1.0428240786e+02 1.0429014090e+02 1.2700000000e+00 0.0000e+00 1.0000e+00
      -13  1    1    2    0    0 +6.3172946258e+01 -6.2728052674e+01 +5.6018474636e+01 1.0518417369e+02 1.0566000000e-01 0.0000e+00 1.0000e+00
       13  1    1    2    0    0 -3.0764060962e+01 -4.3031444939e+00 +4.2609096196e+01 5.2730358828e+01 1.0566000000e-01 0.0000e+00 -1.0000e+00
    10002  1    1    2    0    0 +5.1655338694e+00 -4.7155521773e+01 +5.0747553383e+02 5.1940518231e+02 1.0000000000e+02 0.0000e+00 0.0000e+00
   -10002  1    1    2    0    0 -3.7574419165e+01 +1.1418671894e+02 +2.0324719471e+01 1.5768176172e+02 1.0000000000e+02 0.0000e+00 0.0000e+00
<mgrwt>
<rscale>  0 0.55210112E+03</rscale>
<asrwt>0</asrwt>
<pdfrwt beam="1">  1        4 0.26071707E-01 0.55210112E+03</pdfrwt>
<pdfrwt beam="2">  1       -4 0.18267866E+00 0.55210112E+03</pdfrwt>
<totfact> 0.48030008E+00</totfact>
</mgrwt>
</event>
<event>
 6      1 +2.6141198e-09 4.42438500e+02 7.81860800e-03 1.03000100e-01
       -4 -1    0    0    0  501 -0.0000000000e+00 +0.0000000000e+00 +2.5692344407e+02 2.5692658292e+02 1.2700000000e+00 0.0000e+00 1.0000e+00
        4 -1    0    0  501    0 +0.0000000000e+00 -0.0000000000e+00 -1.9047035389e+02 1.9047458783e+02 1.2700000000e+00 0.0000e+00 1.0000e+00
      -13  1    1    2    0    0 +4.4725281478e+01 -1.4884400874e+01 +3.6159637666e+01 5.9408978722e+01 1.0566000000e-01 0.0000e+00 -1.0000e+00
       13  1    1    2    0    0 -3.9219800732e+01 -3.4260012585e+01 -1.4655448113e+01 5.4099302723e+01 1.0566000000e-01 0.0000e+00 1.0000e+00
    10002  1    1    2    0    0 -8.2635644322e+01 +1.4934831781e+01 +1.2478477998e+02 1.8061821676e+02 1.0000000000e+02 0.0000e+00 0.0000e+00
   -10002  1    1    2    0    0 +7.7130163576e+01 +3.4209581677e+01 -7.9835879352e+01 1.5327467254e+02 1.0000000000e+02 0.0000e+00 0.0000e+00
<mgrwt>
<rscale>  0 0.44243846E+03</rscale>
<asrwt>0</asrwt>
<pdfrwt beam="1">  1        4 0.47618510E-01 0.44243846E+03</pdfrwt>
<pdfrwt beam="2">  1       -4 0.64231782E-01 0.44243846E+03</pdfrwt>
<totfact> 0.18635302E+01</totfact>
</mgrwt>
</event>
<event>
 6      1 +2.6141198e-09 3.95294000e+02 7.81860800e-03 1.04542100e-01
       -4 -1    0    0    0  501 -0.0000000000e+00 +0.0000000000e+00 +7.2656646245e+02 7.2656757239e+02 1.2700000000e+00 0.0000e+00 -1.0000e+00
        4 -1    0    0  501    0 +0.0000000000e+00 -0.0000000000e+00 -5.3757020807e+01 5.3772020476e+01 1.2700000000e+00 0.0000e+00 -1.0000e+00
      -13  1    1    2    0    0 -4.1514339113e+01 +5.0401109508e+00 +1.2727803932e+02 1.3397221177e+02 1.0566000000e-01 0.0000e+00 -1.0000e+00
       13  1    1    2    0    0 +3.5150174231e+01 +4.1113952446e+01 +3.9198270446e+01 6.6801253013e+01 1.0566000000e-01 0.0000e+00 1.0000e+00
    10002  1    1    2    0    0 -3.8138042944e+01 +2.1124063760e+01 +3.9426310932e+02 4.0907717580e+02 1.0000000000e+02 0.0000e+00 0.0000e+00
   -10002  1    1    2    0    0 +4.4502207826e+01 -6.7278127157e+01 +1.1207002256e+02 1.7048895229e+02 1.0000000000e+02 0.0000e+00 0.0000e+00
<mgrwt>
<rscale>  0 0.39529399E+03</rscale>
<asrwt>0</asrwt>
<pdfrwt beam="1">  1        4 0.13441269E-01 0.39529399E+03</pdfrwt>
<pdfrwt beam="2">  1       -4 0.18164363E+00 0.39529399E+03</pdfrwt>
<totfact> 0.16193501E+01</totfact>
</mgrwt>
</event>
<event>
 6      1 +2.6141198e-09 3.73430000e+02 7.81860800e-03 1.05338900e-01
        4 -1    0    0  501    0 +0.0000000000e+00 +0.0000000000e+00 +6.8240808922e+02 6.8240927099e+02 1.2700000000e+00 0.0000e+00 1.0000e+00
       -4 -1    0    0    0  501 -0.0000000000e+00 -0.0000000000e+00 -5.1078331644e+01 5.1094117700e+01 1.2700000000e+00 0.0000e+00 1.0000e+00
      -13  1    1    2    0    0 +5.4505060113e+01 -9.5448573613e+00 +1.7263144482e+02 1.8128301846e+02 1.0566000000e-01 0.0000e+00 1.0000e+00
       13  1    1    2    0    0 -4.0376220105e+01 +4.0310983152e+01 +9.2019173679e+01 1.0827166758e+02 1.0566000000e-01 0.0000e+00 -1.0000e+00
    10002  1    1    2    0    0 +7.2215042577e-01 -2.6305256439e+01 +3.1249787960e+02 3.2916168181e+02 1.0000000000e+02 0.0000e+00 0.0000e+00
   -10002  1    1    2    0    0 -1.4850990434e+01 -4.4608693527e+00 +5.4181259476e+01 1.1478702083e+02 1.0000000000e+02 0.0000e+00 0.0000e+00
<mgrwt>
<rscale>  0 0.37342999E+03</rscale>
<asrwt>0</asrwt>
<pdfrwt beam="1">  1        4 0.17060414E+00 0.37342999E+03</pdfrwt>
<pdfrwt beam="2">  1       -4 0.12771704E-01 0.37342999E+03</pdfrwt>
<totfact> 0.21030606E+01</totfact>
</mgrwt>
</event>
<event>
 6      1 +2.6141198e-09 3.95438100e+02 7.81860800e-03 1.04537100e-01
       -4 -1    0    0    0  501 -0.0000000000e+00 +0.0000000000e+00 +1.2185997706e+02 1.2186659472e+02 1.2700000000e+00 0.0000e+00 1.0000e+00
        4 -1    0    0  501    0 +0.0000000000e+00 -0.0000000000e+00 -3.2078456476e+02 3.2078707875e+02 1.2700000000e+00 0.0000e+00 1.0000e+00
      -13  1    1    2    0    0 +5.3555286162e+01 -3.6754719498e+00 -6.6978837827e+01 8.5836202448e+01 1.0566000000e-01 0.0000e+00 1.0000e+00
       13  1    1    2    0    0 -3.7369975460e+00 -1.8119882644e+01 +2.5486918589e+01 3.1494276954e+01 1.0566000000e-01 0.0000e+00 -1.0000e+00
    10002  1    1    2    0    0 -5.4299766789e+01 +8.8222440805e+01 -2.4337277991e+01 1.4602728113e+02 1.0000000000e+02 0.0000e+00 0.0000e+00
   -10002  1    1    2    0    0 +4.4814781737e+00 -6.6427086211e+01 -1.3309539047e+02 1.7929591293e+02 1.0000000000e+02 0.0000e+00 0.0000e+00
<mgrwt>
<rscale>  0 0.39543809E+03</rscale>
<asrwt>0</asrwt>
<pdfrwt beam="1">  1        4 0.80197281E-01 0.39543809E+03</pdfrwt>
<pdfrwt beam="2">  1       -4 0.30466136E-01 0.39543809E+03</pdfrwt>
<totfact> 0.27571171E+01</totfact>
</mgrwt>
</event>
<event>
 6      1 +2.6141198e-09 5.01446800e+02 7.81860800e-03 1.01340200e-01
        4 -1    0    0  501    0 +0.0000000000e+00 +0.0000000000e+00 +2.6886255412e+02 2.6886555359e+02 1.2700000000e+00 0.0000e+00 -1.0000e+00
       -4 -1    0    0    0  501 -0.0000000000e+00 -0.0000000000e+00 -2.3380200345e+02 2.3380545271e+02 1.2700000000e+00 0.0000e+00 -1.0000e+00
      -13  1    1    2    0    0 -6.5161119670e+01 -4.4734974138e+01 +9.1366486669e+01 1.2080991465e+02 1.0566000000e-01 0.0000e+00 1.0000e+00
       13  1    1    2    0    0 +3.4285158077e+01 -3.3610100752e+01 +3.2951922303e+01 5.8231875158e+01 1.0566000000e-01 0.0000e+00 -1.0000e+00
    10002  1    1    2    0    0 +1.4887784369e+01 -3.0736669752e+01 -1.3169983106e+02 1.6885270058e+02 1.0000000000e+02 0.0000e+00 0.0000e+00
   -10002  1    1    2    0    0 +1.5988177223e+01 +1.0908174464e+02 +4.2441972766e+01 1.5477651591e+02 1.0000000000e+02 0.0000e+00 0.0000e+00
<mgrwt>
<rscale>  0 0.50144681E+03</rscale>
<asrwt>0</asrwt>
<pdfrwt beam="1">  1        4 0.67216444E-01 0.50144681E+03</pdfrwt>
<pdfrwt beam="2">  1       -4 0.58451307E-01 0.50144681E+03</pdfrwt>
<totfact> 0.11045264E+01</totfact>
</mgrwt>
</event>
<event>
 6      1 +2.6141198e-09 5.94654600e+02 7.81860800e-03 9.91655900e-02
        4 -1    0    0  501    0 +0.0000000000e+00 +0.0000000000e+00 +4.5684111186e+02 4.5684287714e+02 1.2700000000e+00 0.0000e+00 1.0000e+00
       -4 -1    0    0    0  501 -0.0000000000e+00 -0.0000000000e+00 -1.9350619747e+02 1.9351036500e+02 1.2700000000e+00 0.0000e+00 1.0000e+00
      -13  1    1    2    0    0 -7.8333417865e+01 +4.4192445186e+01 +1.1929588593e+01 9.0727188946e+01 1.0566000000e-01 0.0000e+00 -1.0000e+00
       13  1    1    2    0    0 +1.4263798031e+01 -2.3867625716e+01 +3.5171094132e+01 4.4834546034e+01 1.0566000000e-01 0.0000e+00 1.0000e+00
    10002  1    1    2    0    0 +1.9106644300e+02 +1.0730575834e+02 +4.0925491010e+01 2.4432725437e+02 1.0000000000e+02 0.0000e+00 0.0000e+00
   -10002  1    1    2    0    0 -1.2699682316e+02 -1.2763057781e+02 +1.7530874066e+02 2.7046425279e+02 1.0000000000e+02 0.0000e+00 0.0000e+00
<mgrwt>
<rscale>  0 0.59465457E+03</rscale>
<asrwt>0</asrwt>
<pdfrwt beam="1">  1        4 0.11421102E+00 0.59465457E+03</pdfrwt>
<pdfrwt beam="2">  1       -4 0.48377291E-01 0.59465457E+03</pdfrwt>
<totfact> 0.48504982E+00</totfact>
</mgrwt>
</event>
<event>
 6      1 +2.6141198e-09 3.97624600e+02 7.81860800e-03 1.04460500e-01
       -4 -1    0    0    0  501 -0.0000000000e+00 +0.0000000000e+00 +3.7945963917e+02 3.7946176442e+02 1.2700000000e+00 0.0000e+00 -1.0000e+00
        4 -1    0    0  501    0 +0.0000000000e+00 -0.0000000000e+00 -1.0415847791e+02 1.0416622015e+02 1.2700000000e+00 0.0000e+00 -1.0000e+00
      -13  1    1    2    0    0 -4.9010289656e+01 -6.5918832713e+01 +4.9968974977e+01 9.6146818058e+01 1.0566000000e-01 0.0000e+00 -1.0000e+00
       13  1    1    2    0    0 +2.0514515643e+01 +2.1748660550e+01 +6.5046939038e+00 3.0596924594e+01 1.0566000000e-01 0.0000e+00 1.0000e+00
    10002  1    1    2    0    0 +2.7743052365e+01 -2.7213264300e+01 +1.5777759689e+00 1.0729738154e+02 1.0000000000e+02 0.0000e+00 0.0000e+00
   -10002  1    1    2    0    0 +7.5272164814e-01 +7.1383436463e+01 +2.1724971642e+02 2.4958686038e+02 1.0000000000e+02 0.0000e+00 0.0000e+00
<mgrwt>
<rscale>  0 0.39762457E+03</rscale>
<asrwt>0</asrwt>
<pdfrwt beam="1">  1        4 0.26040853E-01 0.39762457E+03</pdfrwt>
<pdfrwt beam="2">  1       -4 0.94866142E-01 0.39762457E+03</pdfrwt>
<totfact> 0.25313224E+01</totfact>
</mgrwt>
</event>
<event>
 6      1 +2.6141198e-09 5.52888800e+02 7.81860800e-03 1.00082700e-01
        4 -1    0    0  501    0 +0.0000000000e+00 +0.0000000000e+00 +7.9581119963e+02 7.9581221300e+02 1.2700000000e+00 0.0000e+00 1.0000e+00
       -4 -1    0    0    0  501 -0.0000000000e+00 -0.0000000000e+00 -9.6024413297e+01 9.6032811315e+01 1.2700000000e+00 0.0000e+00 1.0000e+00
      -13  1    1    2    0    0 +1.5780507541e+01 -5.3722044064e+00 +3.0216551841e+00 1.6941858296e+01 1.0566000000e-01 0.0000e+00 -1.0000e+00
       13  1    1    2    0    0 -1.4484674136e+02 -5.4572986169e+01 +1.2714789025e+02 2.0031322088e+02 1.0566000000e-01 0.0000e+00 1.0000e+00
    10002  1    1    2    0    0 -3.9866126322e+01 +6.6843747506e+01 +8.7502449863e+01 1.5399374449e+02 1.0000000000e+02 0.0000e+00 0.0000e+00
   -10002  1    1    2    0    0 +1.6893236014e+02 -6.8985569301e+00 +4.8211479104e+02 5.2059620065e+02 1.0000000000e+02 0.0000e+00 0.0000e+00
<mgrwt>
<rscale>  0 0.55288878E+03</rscale>
<asrwt>0</asrwt>
<pdfrwt beam="1">  1        4 0.19895397E+00 0.55288878E+03</pdfrwt>
<pdfrwt beam="2">  1       -4 0.24007280E-01 0.55288878E+03</pdfrwt>
<totfact> 0.43752325E+00</totfact>
</mgrwt>
</event>
<event>
 6      1 +2.6141198e-09 3.90334900e+02 7.81860800e-03 1.04717900e-01
        4 -1    0    0  501    0 +0.0000000000e+00 +0.0000000000e+00 +5.5180796853e+02 5.5180943000e+02 1.2700000000e+00 0.0000e+00 1.0000e+00
       -4 -1    0    0    0  501 -0.0000000000e+00 -0.0000000000e+00 -6.9020859391e+01 6.9032542551e+01 1.2700000000e+00 0.0000e+00 1.0000e+00
      -13  1    1    2    0    0 -5.0257509998e+01 +1.5884914878e+01 +1.4685278173e+02 1.5602531364e+02 1.0566000000e-01 0.0000e+00 1.0000e+00
       13  1    1    2    0    0 +6.6678728570e+00 -2.4733860974e+01 -4.0295980565e+00 2.5932088841e+01 1.0566000000e-01 0.0000e+00 -1.0000e+00
    10002  1    1    2    0    0 +9.0636691387e+01 +6.5469953379e+01 +2.1964620390e+02 2.6598078786e+02 1.0000000000e+02 0.0000e+00 0.0000e+00
   -10002  1    1    2    0    0 -4.7047054247e+01 -5.6621007282e+01 +1.2031772157e+02 1.7290378221e+02 1.0000000000e+02 0.0000e+00 0.0000e+00
<mgrwt>
<rscale>  0 0.39033494E+03</rscale>
<asrwt>0</asrwt>
<pdfrwt beam="1">  1        4 0.13795363E+00 0.39033494E+03</pdfrwt>
<pdfrwt beam="2">  1       -4 0.17256858E-01 0.39033494E+03</pdfrwt>
<totfact> 0.21673599E+01</totfact>
</mgrwt>
</event>
<event>
 6      1 +2.6141198e-09 4.79707000e+02 7.81860800e-03 1.01921600e-01
        4 -1    0    0  501    0 +0.0000000000e+00 +0.0000000000e+00 +8.3161015083e+02 8.3161112058e+02 1.2700000000e+00 0.0000e+00 1.0000e+00
       -4 -1    0    0    0  501 -0.0000000000e+00 -0.0000000000e+00 -6.9171850184e+01 6.9183507846e+01 1.2700000000e+00 0.0000e+00 1.0000e+00
      -13  1    1    2    0    0 +7.0201589846e+01 -4.1271076332e+01 +2.6288836057e+02 2.7521240206e+02 1.0566000000e-01 0.0000e+00 -1.0000e+00
       13  1    1    2    0    0 -4.1704177806e+00 +2.8431220241e+01 +3.8857200423e+01 4.8328251134e+01 1.0566000000e-01 0.0000e+00 1.0000e+00
    10002  1    1    2    0    0 +8.1349960900e+01 +8.5911875645e+01 +1.9169583673e+02 2.4646695587e+02 1.0000000000e+02 0.0000e+00 0.0000e+00
   -10002  1    1    2    0    0 -1.4738113297e+02 -7.3072019555e+01 +2.6899690292e+02 3.3078701936e+02 1.0000000000e+02 0.0000e+00 0.0000e+00
<mgrwt>
<rscale>  0 0.47970699E+03</rscale>
<asrwt>0</asrwt>
<pdfrwt beam="1">  1        4 0.20790411E+00 0.47970699E+03</pdfrwt>
<pdfrwt beam="2">  1       -4 0.17294541E-01 0.47970699E+03</pdfrwt>
<totfact> 0.69999912E+00</totfact>
</mgrwt>
</event>
<event>
 6      1 +2.6141198e-09 7.21729300e+02 7.81860800e-03 9.68077700e-02
        4 -1    0    0  501    0 +0.0000000000e+00 +0.0000000000e+00 +1.2749334813e+03 1.2749341138e+03 1.2700000000e+00 0.0000e+00 -1.0000e+00
       -4 -1    0    0    0  501 -0.0000000000e+00 -0.0000000000e+00 -1.0213664153e+02 1.0214453702e+02 1.2700000000e+00 0.0000e+00 -1.0000e+00
      -13  1    1    2    0    0 -3.5181385555e+01 -1.5072556914e+00 +1.7411542828e+02 1.7764063510e+02 1.0566000000e-01 0.0000e+00 1.0000e+00
       13  1    1    2    0    0 +7.1559554226e+01 -5.8736995978e+01 +3.1847210494e+02 3.3165538935e+02 1.0566000000e-01 0.0000e+00 -1.0000e+00
    10002  1    1    2    0    0 -7.7645947299e+01 +1.8152875870e+02 +6.6924745467e+02 7.0489271449e+02 1.0000000000e+02 0.0000e+00 0.0000e+00
   -10002  1    1    2    0    0 +4.1267778629e+01 -1.2128450703e+02 +1.0961851856e+01 1.6288991188e+02 1.0000000000e+02 0.0000e+00 0.0000e+00
<mgrwt>
<rscale>  0 0.72172930E+03</rscale>
<asrwt>0</asrwt>
<pdfrwt beam="1">  1        4 0.31873443E+00 0.72172930E+03</pdfrwt>
<pdfrwt beam="2">  1       -4 0.25535227E-01 0.72172930E+03</pdfrwt>
<totfact> 0.70674238E-01</totfact>
</mgrwt>
</event>
<event>
 6      1 +2.6141198e-09 3.93172100e+02 7.81860800e-03 1.04617000e-01
       -4 -1    0    0    0  501 -0.0000000000e+00 +0.0000000000e+00 +2.3498203336e+02 2.3498546530e+02 1.2700000000e+00 0.0000e+00 1.0000e+00
        4 -1    0    0  501    0 +0.0000000000e+00 -0.0000000000e+00 -1.6445687563e+02 1.6446177928e+02 1.2700000000e+00 0.0000e+00 1.0000e+00
      -13  1    1    2    0    0 +4.3430448627e+01 +4.8499704677e+01 +6.4277001510e+01 9.1487536358e+01 1.0566000000e-01 0.0000e+00 -1.0000e+00
       13  1    1    2    0    0 -7.7516269348e+00 -1.8217539181e+01 -1.0847835554e+01 2.2575498980e+01 1.0566000000e-01 0.0000e+00 1.0000e+00
    10002  1    1    2    0    0 +3.8492237372e+01 +4.4986225199e+01 -4.8330594430e+01 1.2586206400e+02 1.0000000000e+02 0.0000e+00 0.0000e+00
   -10002  1    1    2    0    0 -7.4171059065e+01 -7.5268390695e+01 +6.5426586204e+01 1.5952214524e+02 1.0000000000e+02 0.0000e+00 0.0000e+00
<mgrwt>
<rscale>  0 0.39317210E+03</rscale>
<asrwt>0</asrwt>
<pdfrwt beam="1">  1        4 0.41115261E-01 0.39317210E+03</pdfrwt>
<pdfrwt beam="2">  1       -4 0.58746550E-01 0.39317210E+03</pdfrwt>
<totfact> 0.30224561E+01</totfact>
</mgrwt>
</event>
<event>
 6      1 +2.6141198e-09 4.16435300e+02 7.81860800e-03 1.03823300e-01
        4 -1    0    0  501    0 +0.0000000000e+00 +0.0000000000e+00 +2.9211430084e+02 2.9211706156e+02 1.2700000000e+00 0.0000e+00 1.0000e+00
       -4 -1    0    0    0  501 -0.0000000000e+00 -0.0000000000e+00 -1.4841036819e+02 1.4841580201e+02 1.2700000000e+00 0.0000e+00 1.0000e+00
      -13  1    1    2    0    0 -2.5621814144e+01 +6.2642342704e+01 +2.6245691147e+01 7.2590549848e+01 1.0566000000e-01 0.0000e+00 -1.0000e+00
       13  1    1    2    0    0 +2.9723097147e+01 -8.9578975840e+00 -2.7968858052e+01 4.1784861109e+01 1.0566000000e-01 0.0000e+00 1.0000e+00
    10002  1    1    2    0    0 -8.1696409645e+01 +2.6386081178e+00 +5.5357638469e+00 1.2927455389e+02 1.0000000000e+02 0.0000e+00 0.0000e+00
   -10002  1    1    2    0    0 +7.7595126643e+01 -5.6323053238e+01 +1.3989133571e+02 1.9688289872e+02 1.0000000000e+02 0.0000e+00 0.0000e+00
<mgrwt>
<rscale>  0 0.41643533E+03</rscale>
<asrwt>0</asrwt>
<pdfrwt beam="1">  1        4 0.73029599E-01 0.41643533E+03</pdfrwt>
<pdfrwt beam="2">  1       -4 0.37103617E-01 0.41643533E+03</pdfrwt>
<totfact> 0.23204773E+01</totfact>
</mgrwt>
</event>
<event>
 6      1 +2.6141198e-09 5.15890800e+02 7.81860800e-03 1.00971200e-01
       -4 -1    0    0    0  501 -0.0000000000e+00 +0.0000000000e+00 +7.6137419034e+01 7.6148010330e+01 1.2700000000e+00 0.0000e+00 1.0000e+00
        4 -1    0    0  501    0 +0.0000000000e+00 -0.0000000000e+00 -8.7381944723e+02 8.7382037013e+02 1.2700000000e+00 0.0000e+00 1.0000e+00
      -13  1    1    2    0    0 -2.6172628227e+01 +2.7923202573e+00 -3.0087164232e+01 3.9975644288e+01 1.0566000000e-01 0.0000e+00 -1.0000e+00
       13  1    1    2    0    0 +5.3702790304e+01 -1.0663194827e+02 -3.0377689734e+02 3.2639665531e+02 1.0566000000e-01 0.0000e+00 1.0000e+00
    10002  1    1    2    0    0 -6.6048879029e+01 -3.6339710078e+01 -5.2055006127e+01 1.3561988281e+02 1.0000000000e+02 0.0000e+00 0.0000e+00
   -10002  1    1    2    0    0 +3.8518716952e+01 +1.4017933809e+02 -4.1176296050e+02 4.4797619805e+02 1.0000000000e+02 0.0000e+00 0.0000e+00
<mgrwt>
<rscale>  0 0.51589079E+03</rscale>
<asrwt>0</asrwt>
<pdfrwt beam="1">  1        4 0.21845627E+00 0.51589079E+03</pdfrwt>
<pdfrwt beam="2">  1       -4 0.19035797E-01 0.51589079E+03</pdfrwt>
<totfact> 0.50488555E+00</totfact>
</mgrwt>
</event>
<event>
 6      1 +2.6141198e-09 5.21366100e+02 7.81860800e-03 1.00834800e-01
       -4 -1    0    0    0  501 -0.0000000000e+00 +0.0000000000e+00 +4.1299836535e+02 4.1300031802e+02 1.2700000000e+00 0.0000e+00 1.0000e+00
        4 -1    0    0  501    0 +0.0000000000e+00 -0.0000000000e+00 -1.6453739381e+02 1.6454229505e+02 1.2700000000e+00 0.0000e+00 1.0000e+00
      -13  1    1    2    0    0 -2.1288792623e+01 +7.5787436456e+00 -4.1693439892e+01 4.7423666461e+01 1.0566000000e-01 0.0000e+00 -1.0000e+00
       13  1    1    2    0    0 +1.4309906802e+01 -2.0377119039e+01 +4.9274823582e+01 5.5208874432e+01 1.0566000000e-01 0.0000e+00 1.0000e+00
    10002  1    1    2    0    0 -8.1810691123e+01 +7.9556824215e+01 +2.8170451354e+02 3.1996829595e+02 1.0000000000e+02 0.0000e+00 0.0000e+00
   -10002  1    1    2    0    0 +8.8789576944e+01 -6.6758448822e+01 -4.0824925687e+01 1.5494177623e+02 1.0000000000e+02 0.0000e+00 0.0000e+00
<mgrwt>
<rscale>  0 0.52136611E+03</rscale>
<asrwt>0</asrwt>
<pdfrwt beam="1">  1        4 0.41135206E-01 0.52136611E+03</pdfrwt>
<pdfrwt beam="2">  1       -4 0.10325045E+00 0.52136611E+03</pdfrwt>
<totfact> 0.86015606E+00</totfact>
</mgrwt>
</event>
<event>
 6      1 +2.6141198e-09 5.18958100e+02 7.81860800e-03 1.00894600e-01
        4 -1    0    0  501    0 +0.0000000000e+00 +0.0000000000e+00 +2.7120926757e+02 2.7121224109e+02 1.2700000000e+00 0.0000e+00 -1.0000e+00
       -4 -1    0    0    0  501 -0.0000000000e+00 -0.0000000000e+00 -2.4825020473e+02 2.4825345325e+02 1.2700000000e+00 0.0000e+00 -1.0000e+00
      -13  1    1    2    0    0 -2.1349294421e+01 +6.7277163204e+01 +8.7068169505e+00 7.1118414539e+01 1.0566000000e-01 0.0000e+00 -1.0000e+00
       13  1    1    2    0    0 -1.0036250107e+02 -8.9492383501e+00 +3.3266923506e+01 1.0611041349e+02 1.0566000000e-01 0.0000e+00 1.0000e+00
    10002  1    1    2    0    0 +6.4226683734e+01 -1.4188677622e+02 -5.9064506557e+01 1.9428211473e+02 1.0000000000e+02 0.0000e+00 0.0000e+00
   -10002  1    1    2    0    0 +5.7485111757e+01 +8.3558851365e+01 +4.0049828942e+01 1.4795475157e+02 1.0000000000e+02 0.0000e+00 0.0000e+00
<mgrwt>
<rscale>  0 0.51895808E+03</rscale>
<asrwt>0</asrwt>
<pdfrwt beam="1">  1        4 0.67803095E-01 0.51895808E+03</pdfrwt>
<pdfrwt beam="2">  1       -4 0.62063329E-01 0.51895808E+03</pdfrwt>
<totfact> 0.95385835E+00</totfact>
</mgrwt>
</event>
<event>
 6      1 +2.6141198e-09 3.52434200e+02 7.81860800e-03 1.06162000e-01
       -4 -1    0    0    0  501 -0.0000000000e+00 +0.0000000000e+00 +4.4491960927e+01 4.4510082982e+01 1.2700000000e+00 0.0000e+00 1.0000e+00
        4 -1    0    0  501    0 +0.0000000000e+00 -0.0000000000e+00 -6.9777336233e+02 6.9777451808e+02 1.2700000000e+00 0.0000e+00 1.0000e+00
      -13  1    1    2    0    0 +5.3424519442e+01 -1.9396867752e+01 -7.3506591339e+01 9.2917425117e+01 1.0566000000e-01 0.0000e+00 -1.0000e+00
       13  1    1    2    0    0 -2.2505369774e+01 -4.4107831120e+00 -7.2686170249e+01 7.6218352027e+01 1.0566000000e-01 0.0000e+00 1.0000e+00
    10002  1    1    2    0    0 -3.1496030572e+00 +1.8627557730e+01 -4.3483273801e+02 4.4658304485e+02 1.0000000000e+02 0.0000e+00 0.0000e+00
   -10002  1    1    2    0    0 -2.7769546610e+01 +5.1800931345e+00 -7.2255901813e+01 1.2656577907e+02 1.0000000000e+02 0.0000e+00 0.0000e+00
<mgrwt>
<rscale>  0 0.35243416E+03</rscale>
<asrwt>0</asrwt>
<pdfrwt beam="1">  1        4 0.17444572E+00 0.35243416E+03</pdfrwt>
<pdfrwt beam="2">  1       -4 0.11125402E-01 0.35243416E+03</pdfrwt>
<totfact> 0.25057318E+01</totfact>
</mgrwt>
</event>
<event>
 6      1 +2.6141198e-09 4.27849400e+02 7.81860800e-03 1.03454100e-01
        4 -1    0    0  501    0 +0.0000000000e+00 +0.0000000000e+00 +6.9600895743e+02 6.9601011611e+02 1.2700000000e+00 0.0000e+00 1.0000e+00
       -4 -1    0    0    0  501 -0.0000000000e+00 -0.0000000000e+00 -6.5744367659e+01 6.5756632965e+01 1.2700000000e+00 0.0000e+00 1.0000e+00
      -13  1    1    2    0    0 -9.3132448872e+00 +3.0527170342e+01 -2.9317486198e+00 3.2050756206e+01 1.0566000000e-01 0.0000e+00 -1.0000e+00
       13  1    1    2    0    0 -1.8993474884e+00 -3.6654520610e+01 +5.9911346220e+01 7.0260529260e+01 1.0566000000e-01 0.0000e+00 1.0000e+00
    10002  1    1    2    0    0 +6.0843986891e+01 -1.0743149416e+02 +2.1464394791e+02 2.6704969773e+02 1.0000000000e+02 0.0000e+00 0.0000e+00
   -10002  1    1    2    0    0 -4.9631394516e+01 +1.1355884443e+02 +3.5864104426e+02 3.9240576588e+02 1.0000000000e+02 0.0000e+00 0.0000e+00
<mgrwt>
<rscale>  0 0.42784942E+03</rscale>
<asrwt>0</asrwt>
<pdfrwt beam="1">  1        4 0.17400392E+00 0.42784942E+03</pdfrwt>
<pdfrwt beam="2">  1       -4 0.16437770E-01 0.42784942E+03</pdfrwt>
<totfact> 0.12818447E+01</totfact>
</mgrwt>
</event>
<event>
 6      1 +2.6141198e-09 4.04797100e+02 7.81860800e-03 1.04213100e-01
        4 -1    0    0  501    0 +0.0000000000e+00 +0.0000000000e+00 +2.1072885452e+02 2.1073268144e+02 1.2700000000e+00 0.0000e+00 1.0000e+00
       -4 -1    0    0    0  501 -0.0000000000e+00 -0.0000000000e+00 -1.9438986105e+02 1.9439400963e+02 1.2700000000e+00 0.0000e+00 1.0000e+00
      -13  1    1    2    0    0 -1.1790114548e+01 +1.2773869850e+01 -8.3527785896e+00 1.9286228927e+01 1.0566000000e-01 0.0000e+00 1.0000e+00
       13  1    1    2    0    0 +6.3674326331e+01 -5.7548846468e+01 +3.7845618318e+01 9.3800807851e+01 1.0566000000e-01 0.0000e+00 -1.0000e+00
    10002  1    1    2    0    0 -6.7841160895e+01 +1.3829371842e+01 -9.8123285610e+01 1.5627493022e+02 1.0000000000e+02 0.0000e+00 0.0000e+00
   -10002  1    1    2    0    0 +1.5956949113e+01 +3.0945604776e+01 +8.4969439349e+01 1.3576472408e+02 1.0000000000e+02 0.0000e+00 0.0000e+00
<mgrwt>
<rscale>  0 0.40479708E+03</rscale>
<asrwt>0</asrwt>
<pdfrwt beam="1">  1        4 0.52683211E-01 0.40479708E+03</pdfrwt>
<pdfrwt beam="2">  1       -4 0.48598462E-01 0.40479708E+03</pdfrwt>
<totfact> 0.27111384E+01</totfact>
</mgrwt>
</event>
<event>
 6      1 +2.6141198e-09 6.14765800e+02 7.81860800e-03 9.87523700e-02
        4 -1    0    0  501    0 +0.0000000000e+00 +0.0000000000e+00 +1.5031629604e+02 1.5032166096e+02 1.2700000000e+00 0.0000e+00 -1.0000e+00
       -4 -1    0    0    0  501 -0.0000000000e+00 -0.0000000000e+00 -6.2855227421e+02 6.2855355723e+02 1.2700000000e+00 0.0000e+00 -1.0000e+00
      -13  1    1    2    0    0 +2.5026726360e+01 +2.5253406544e+01 +9.5416856134e+00 3.6812042904e+01 1.0566000000e-01 0.0000e+00 1.0000e+00
       13  1    1    2    0    0 +4.2326973145e-01 +1.0424155622e+02 -1.2877583820e+02 1.6567953666e+02 1.0566000000e-01 0.0000e+00 -1.0000e+00
    10002  1    1    2    0    0 -1.7293184808e+02 -1.4627291969e+02 -2.9769315710e+02 3.8719814940e+02 1.0000000000e+02 0.0000e+00 0.0000e+00
   -10002  1    1    2    0    0 +1.4748185199e+02 +1.6777956925e+01 -6.1308668488e+01 1.8918548923e+02 1.0000000000e+02 0.0000e+00 0.0000e+00
<mgrwt>
<rscale>  0 0.61476577E+03</rscale>
<asrwt>0</asrwt>
<pdfrwt beam="1">  1        4 0.37579907E-01 0.61476577E+03</pdfrwt>
<pdfrwt beam="2">  1       -4 0.15713889E+00 0.61476577E+03</pdfrwt>
<totfact> 0.35831355E+00</totfact>
</mgrwt>
</event>
<event>
 6      1 +2.6141198e-09 6.59087100e+02 7.81860800e-03 9.78987600e-02
        4 -1    0    0  501    0 +0.0000000000e+00 +0.0000000000e+00 +7.5803546391e+02 7.5803652778e+02 1.2700000000e+00 0.0000e+00 1.0000e+00
       -4 -1    0    0    0  501 -0.0000000000e+00 -0.0000000000e+00 -1.4325970196e+02 1.4326533114e+02 1.2700000000e+00 0.0000e+00 1.0000e+00
      -13  1    1    2    0    0 +1.9941608774e+01 -3.1837354380e+01 -1.8123803157e+00 3.7610913055e+01 1.0566000000e-01 0.0000e+00 1.0000e+00
       13  1    1    2    0    0 +4.2499962804e+01 -5.6078292129e+01 +1.8546835314e+02 1.9836719201e+02 1.0566000000e-01 0.0000e+00 -1.0000e+00
    10002  1    1    2    0    0 +1.4675559744e+02 +7.6511079195e+01 +3.8182643101e+02 4.2799833415e+02 1.0000000000e+02 0.0000e+00 0.0000e+00
   -10002  1    1    2    0    0 -2.0919716902e+02 +1.1404567314e+01 +4.9293358114e+01 2.3732541970e+02 1.0000000000e+02 0.0000e+00 0.0000e+00
<mgrwt>
<rscale>  0 0.65908710E+03</rscale>
<asrwt>0</asrwt>
<pdfrwt beam="1">  1        4 0.18950970E+00 0.65908710E+03</pdfrwt>
<pdfrwt beam="2">  1       -4 0.35815763E-01 0.65908710E+03</pdfrwt>
<totfact> 0.23331398E+00</totfact>
</mgrwt>
</event>
<event>
 6      1 +2.6141198e-09 4.47128300e+02 7.81860800e-03 1.02858200e-01
        4 -1    0    0  501    0 +0.0000000000e+00 +0.0000000000e+00 +3.0452756135e+02 3.0453020954e+02 1.2700000000e+00 0.0000e+00 -1.0000e+00
       -4 -1    0    0    0  501 -0.0000000000e+00 -0.0000000000e+00 -1.6412030673e+02 1.6412522043e+02 1.2700000000e+00 0.0000e+00 -1.0000e+00
      -13  1    1    2    0    0 -2.1407628037e+01 -3.2098596156e+01 +8.4563188548e+00 3.9498441817e+01 1.0566000000e-01 0.0000e+00 -1.0000e+00
       13  1    1    2    0    0 +4.7391347667e+01 +1.4049209575e+01 -5.6891281534e+01 7.5365437716e+01 1.0566000000e-01 0.0000e+00 1.0000e+00
    10002  1    1    2    0    0 -1.9786645376e+01 -1.2916296478e+01 +2.2131963361e+02 2.4400967659e+02 1.0000000000e+02 0.0000e+00 0.0000e+00
   -10002  1    1    2    0    0 -6.1970742546e+00 +3.0965683059e+01 -3.2477416310e+01 1.0978187385e+02 1.0000000000e+02 0.0000e+00 0.0000e+00
<mgrwt>
<rscale>  0 0.44712830E+03</rscale>
<asrwt>0</asrwt>
<pdfrwt beam="1">  1        4 0.76132835E-01 0.44712830E+03</pdfrwt>
<pdfrwt beam="2">  1       -4 0.41031022E-01 0.44712830E+03</pdfrwt>
<totfact> 0.17366615E+01</totfact>
</mgrwt>
</event>
<event>
 6      1 +2.6141198e-09 5.11364800e+02 7.81860800e-03 1.01085400e-01
       -4 -1    0    0    0  501 -0.0000000000e+00 +0.0000000000e+00 +2.6797929554e+02 2.6798230490e+02 1.2700000000e+00 0.0000e+00 -1.0000e+00
        4 -1    0    0  501    0 +0.0000000000e+00 -0.0000000000e+00 -2.4394377535e+02 2.4394708121e+02 1.2700000000e+00 0.0000e+00 -1.0000e+00
      -13  1    1    2    0    0 -8.9698709814e+00 -7.5576166136e+01 +5.0453801597e+01 9.1311624303e+01 1.0566000000e-01 0.0000e+00 1.0000e+00
       13  1    1    2    0    0 -3.0258435723e+01 -6.9684813768e+00 +4.2809803749e-02 3.1050695029e+01 1.0566000000e-01 0.0000e+00 -1.0000e+00
    10002  1    1    2    0    0 -2.0231424772e+01 +1.8992867956e+02 +3.7456301529e+01 2.1882684568e+02 1.0000000000e+02 0.0000e+00 0.0000e+00
   -10002  1    1    2    0    0 +5.9459731476e+01 -1.0738403205e+02 -6.3917392736e+01 1.7074022110e+02 1.0000000000e+02 0.0000e+00 0.0000e+00
<mgrwt>
<rscale>  0 0.51136483E+03</rscale>
<asrwt>0</asrwt>
<pdfrwt beam="1">  1        4 0.60986734E-01 0.51136483E+03</pdfrwt>
<pdfrwt beam="2">  1       -4 0.66995613E-01 0.51136483E+03</pdfrwt>
<totfact> 0.10163882E+01</totfact>
</mgrwt>
</event>
<event>
 6      1 +2.6141198e-09 4.36519400e+02 7.81860800e-03 1.03182000e-01
        4 -1    0    0  501    0 +0.0000000000e+00 +0.0000000000e+00 +6.8290838135e+02 6.8290956226e+02 1.2700000000e+00 0.0000e+00 1.0000e+00
       -4 -1    0    0    0  501 -0.0000000000e+00 -0.0000000000e+00 -6.9749466923e+01 6.9761028061e+01 1.2700000000e+00 0.0000e+00 1.0000e+00
      -13  1    1    2    0    0 +1.5913142168e+01 +1.0675750436e+01 +2.8631257339e+01 3.4452282970e+01 1.0566000000e-01 0.0000e+00 1.0000e+00
       13  1    1    2    0    0 -9.2708928639e+01 -1.0867689968e+02 +2.2899705301e+02 2.6989863917e+02 1.0566000000e-01 0.0000e+00 -1.0000e+00
    10002  1    1    2    0    0 -2.1422578627e+01 +7.5487674790e+01 +2.0656821505e+02 2.4254431222e+02 1.0000000000e+02 0.0000e+00 0.0000e+00
   -10002  1    1    2    0    0 +9.8218365098e+01 +2.2513474458e+01 +1.4896238903e+02 2.0577535596e+02 1.0000000000e+02 0.0000e+00 0.0000e+00
<mgrwt>
<rscale>  0 0.43651937E+03</rscale>
<asrwt>0</asrwt>
<pdfrwt beam="1">  1        4 0.17072869E+00 0.43651937E+03</pdfrwt>
<pdfrwt beam="2">  1       -4 0.17438960E-01 0.43651937E+03</pdfrwt>
<totfact> 0.12154652E+01</totfact>
</mgrwt>
</event>
<event>
 6      1 +2.6141198e-09 4.86525800e+02 7.81860800e-03 1.01735700e-01
        4 -1    0    0  501    0 +0.0000000000e+00 +0.0000000000e+00 +4.3709130252e+02 4.3709314756e+02 1.2700000000e+00 0.0000e+00 1.0000e+00
       -4 -1    0    0    0  501 -0.0000000000e+00 -0.0000000000e+00 -1.3538272058e+02 1.3538867727e+02 1.2700000000e+00 0.0000e+00 1.0000e+00
      -13  1    1    2    0    0 -6.1457064438e+01 +3.4098194241e+01 -7.0403661626e+00 7.0634520877e+01 1.0566000000e-01 0.0000e+00 1.0000e+00
       13  1    1    2    0    0 -7.5500780085e-01 -1.8965377900e+01 +5.0547048506e+01 5.3993248396e+01 1.0566000000e-01 0.0000e+00 -1.0000e+00
    10002  1    1    2    0    0 -6.3284415130e+01 +1.0792320203e+02 +8.3503374601e+01 1.8062432922e+02 1.0000000000e+02 0.0000e+00 0.0000e+00
   -10002  1    1    2    0    0 +1.2549648737e+02 -1.2305601838e+02 +1.7469852500e+02 2.6722972633e+02 1.0000000000e+02 0.0000e+00 0.0000e+00
<mgrwt>
<rscale>  0 0.48652582E+03</rscale>
<asrwt>0</asrwt>
<pdfrwt beam="1">  1        4 0.10927380E+00 0.48652582E+03</pdfrwt>
<pdfrwt beam="2">  1       -4 0.33846656E-01 0.48652582E+03</pdfrwt>
<totfact> 0.11034734E+01</totfact>
</mgrwt>
</event>
<event>
 6      1 +2.6141198e-09 4.70901100e+02 7.81860800e-03 1.02166600e-01
        4 -1    0    0  501    0 +0.0000000000e+00 +0.0000000000e+00 +7.5136646394e+02 7.5136753726e+02 1.2700000000e+00 0.0000e+00 -1.0000e+00
       -4 -1    0    0    0  501 -0.0000000000e+00 -0.0000000000e+00 -7.3774929173e+01 7.3785859584e+01 1.2700000000e+00 0.0000e+00 -1.0000e+00
      -13  1    1    2    0    0 +2.3318504197e+01 -2.3330878780e+00 +1.0508025553e+01 2.5683179361e+01 1.0566000000e-01 0.0000e+00 1.0000e+00
       13  1    1    2    0    0 -1.3974743117e+01 +8.1589590356e+01 +2.1333534431e+02 2.2883211094e+02 1.0566000000e-01 0.0000e+00 -1.0000e+00
    10002  1    1    2    0    0 +8.8424882295e+01 +6.2046017274e+01 +1.8976792153e+02 2.4016771663e+02 1.0000000000e+02 0.0000e+00 0.0000e+00
   -10002  1    1    2    0    0 -9.7768643375e+01 -1.4130251975e+02 +2.6398024338e+02 3.3047038991e+02 1.0000000000e+02 0.0000e+00 0.0000e+00
<mgrwt>
<rscale>  0 0.47090109E+03</rscale>
<asrwt>0</asrwt>
<pdfrwt beam="1">  1        4 0.18784311E+00 0.47090109E+03</pdfrwt>
<pdfrwt beam="2">  1       -4 0.18445233E-01 0.47090109E+03</pdfrwt>
<totfact> 0.84076631E+00</totfact>
</mgrwt>
</event>
<event>
 6      1 +2.6141198e-09 4.12820200e+02 7.81860800e-03 1.03942900e-01
       -4 -1    0    0    0  501 -0.0000000000e+00 +0.0000000000e+00 +8.8253631499e+01 8.8262768894e+01 1.2700000000e+00 0.0000e+00 1.0000e+00
        4 -1    0    0  501    0 +0.0000000000e+00 -0.0000000000e+00 -4.8272283254e+02 4.8272450317e+02 1.2700000000e+00 0.0000e+00 1.0000e+00
      -13  1    1    2    0    0 -2.0609116337e+01 +1.1821353158e+02 -1.2119094570e+02 1.7054744562e+02 1.0566000000e-01 0.0000e+00 -1.0000e+00
       13  1    1    2    0    0 +2.1716450204e+01 -1.2243108438e+01 -3.1617845000e+01 4.0264093187e+01 1.0566000000e-01 0.0000e+00 1.0000e+00
    10002  1    1    2    0    0 -1.5069786147e+01 -9.8495511500e+01 -2.1195191949e+02 2.5466071628e+02 1.0000000000e+02 0.0000e+00 0.0000e+00
   -10002  1    1    2    0    0 +1.3962452280e+01 -7.4749116463e+00 -2.9708490860e+01 1.0551501697e+02 1.0000000000e+02 0.0000e+00 0.0000e+00
<mgrwt>
<rscale>  0 0.41282020E+03</rscale>
<asrwt>0</asrwt>
<pdfrwt beam="1">  1        4 0.12068205E+00 0.41282020E+03</pdfrwt>
<pdfrwt beam="2">  1       -4 0.22064760E-01 0.41282020E+03</pdfrwt>
<totfact> 0.19415620E+01</totfact>
</mgrwt>
</event>
<event>
 6      1 +2.6141198e-09 1.13707000e+03 7.81860800e-03 9.16979600e-02
        4 -1    0    0  501    0 +0.0000000000e+00 +0.0000000000e+00 +1.3520118385e+03 1.3520124350e+03 1.2700000000e+00 0.0000e+00 -1.0000e+00
       -4 -1    0    0    0  501 -0.0000000000e+00 -0.0000000000e+00 -2.3907233691e+02 2.3907571014e+02 1.2700000000e+00 0.0000e+00 -1.0000e+00
      -13  1    1    2    0    0 -2.4247721172e+01 -5.8924812802e+01 +6.8465666783e+01 9.3528841743e+01 1.0566000000e-01 0.0000e+00 1.0000e+00
       13  1    1    2    0    0 +1.4081266769e+01 +2.8388449783e+01 -6.6879433250e+00 3.2387125603e+01 1.0566000000e-01 0.0000e+00 -1.0000e+00
    10002  1    1    2    0    0 +1.0183088927e+02 -4.5624919233e+02 +3.1589186785e+02 5.7299260701e+02 1.0000000000e+02 0.0000e+00 0.0000e+00
   -10002  1    1    2    0    0 -9.1664434863e+01 +4.8678555535e+02 +7.3526991027e+02 8.9217957075e+02 1.0000000000e+02 0.0000e+00 0.0000e+00
<mgrwt>
<rscale>  0 0.11370695E+04</rscale>
<asrwt>0</asrwt>
<pdfrwt beam="1">  1        4 0.33800345E+00 0.11370695E+04</pdfrwt>
<pdfrwt beam="2">  1       -4 0.59768582E-01 0.11370695E+04</pdfrwt>
<totfact> 0.92213578E-02</totfact>
</mgrwt>
</event>
<event>
 6      1 +2.6141198e-09 3.59343700e+02 7.81860800e-03 1.05884400e-01
        4 -1    0    0  501    0 +0.0000000000e+00 +0.0000000000e+00 +1.6234336477e+02 1.6234833225e+02 1.2700000000e+00 0.0000e+00 1.0000e+00
       -4 -1    0    0    0  501 -0.0000000000e+00 -0.0000000000e+00 -1.9883995773e+02 1.9884401346e+02 1.2700000000e+00 0.0000e+00 1.0000e+00
      -13  1    1    2    0    0 +4.1060747158e+01 -5.6475976234e+01 +1.1470991840e+01 7.0760975591e+01 1.0566000000e-01 0.0000e+00 -1.0000e+00
       13  1    1    2    0    0 +3.4368690926e+00 +2.3164687606e+01 -4.1531946382e+01 4.7679435351e+01 1.0566000000e-01 0.0000e+00 1.0000e+00
    10002  1    1    2    0    0 -3.2095176889e+01 -1.9681419708e+01 -5.3570847886e+01 1.1952947086e+02 1.0000000000e+02 0.0000e+00 0.0000e+00
   -10002  1    1    2    0    0 -1.2402439361e+01 +5.2992708336e+01 +4.7135209470e+01 1.2322246390e+02 1.0000000000e+02 0.0000e+00 0.0000e+00
<mgrwt>
<rscale>  0 0.35934372E+03</rscale>
<asrwt>0</asrwt>
<pdfrwt beam="1">  1        4 0.40586969E-01 0.35934372E+03</pdfrwt>
<pdfrwt beam="2">  1       -4 0.49711117E-01 0.35934372E+03</pdfrwt>
<totfact> 0.43750701E+01</totfact>
</mgrwt>
</event>
<event>
 6      1 +2.6141198e-09 3.65266500e+02 7.81860800e-03 1.05651800e-01
        4 -1    0    0  501    0 +0.0000000000e+00 +0.0000000000e+00 +6.4827112756e+02 6.4827237156e+02 1.2700000000e+00 0.0000e+00 1.0000e+00
       -4 -1    0    0    0  501 -0.0000000000e+00 -0.0000000000e+00 -5.1442946632e+01 5.1458620835e+01 1.2700000000e+00 0.0000e+00 1.0000e+00
      -13  1    1    2    0    0 -1.8311856740e+01 +1.0852361543e+01 +1.2626998941e+02 1.2805162724e+02 1.0566000000e-01 0.0000e+00 -1.0000e+00
       13  1    1    2    0    0 +2.5675360269e+01 -1.1177289023e+01 +6.1191059124e+00 2.8663749512e+01 1.0566000000e-01 0.0000e+00 1.0000e+00
    10002  1    1    2    0    0 +3.2729523130e+01 -8.3059819211e+01 +1.5508602576e+02 2.0499226970e+02 1.0000000000e+02 0.0000e+00 0.0000e+00
   -10002  1    1    2    0    0 -4.0093026659e+01 +8.3384746692e+01 +3.0935305985e+02 3.3802334595e+02 1.0000000000e+02 0.0000e+00 0.0000e+00
<mgrwt>
<rscale>  0 0.36526646E+03</rscale>
<asrwt>0</asrwt>
<pdfrwt beam="1">  1        4 0.16206990E+00 0.36526646E+03</pdfrwt>
<pdfrwt beam="2">  1       -4 0.12862851E-01 0.36526646E+03</pdfrwt>
<totfact> 0.23847878E+01</totfact>
</mgrwt>
</event>
<event>
 6      1 +2.6141198e-09 4.86681900e+02 7.81860800e-03 1.01731500e-01
       -4 -1    0    0    0  501 -0.0000000000e+00 +0.0000000000e+00 +3.8167402968e+02 3.8167614260e+02 1.2700000000e+00 0.0000e+00 1.0000e+00
        4 -1    0    0  501    0 +0.0000000000e+00 -0.0000000000e+00 -1.5513988305e+02 1.5514508118e+02 1.2700000000e+00 0.0000e+00 1.0000e+00
      -13  1    1    2    0    0 +4.9535576789e+00 +3.0671268708e+01 +1.0299998388e+02 1.0758379200e+02 1.0566000000e-01 0.0000e+00 -1.0000e+00
       13  1    1    2    0    0 -3.6597068675e+00 +7.7110550386e+01 +5.1382751341e+00 7.7368232955e+01 1.0566000000e-01 0.0000e+00 1.0000e+00
    10002  1    1    2    0    0 -1.1316105435e+02 -9.8746301406e+01 +5.4034448134e+01 1.8835067785e+02 1.0000000000e+02 0.0000e+00 0.0000e+00
   -10002  1    1    2    0    0 +1.1186720354e+02 -9.0355176874e+00 +6.4361439475e+01 1.6351852096e+02 1.0000000000e+02 0.0000e+00 0.0000e+00
<mgrwt>
<rscale>  0 0.48668194E+03</rscale>
<asrwt>0</asrwt>
<pdfrwt beam="1">  1        4 0.38785885E-01 0.48668194E+03</pdfrwt>
<pdfrwt beam="2">  1       -4 0.95419421E-01 0.48668194E+03</pdfrwt>
<totfact> 0.11641709E+01</totfact>
</mgrwt>
</event>
<event>
 6      1 +2.6141198e-09 6.83796800e+02 7.81860800e-03 9.74535000e-02
        4 -1    0    0  501    0 +0.0000000000e+00 +0.0000000000e+00 +2.6779091046e+02 2.6779392194e+02 1.2700000000e+00 0.0000e+00 1.0000e+00
       -4 -1    0    0    0  501 -0.0000000000e+00 -0.0000000000e+00 -4.3650774575e+02 4.3650959325e+02 1.2700000000e+00 0.0000e+00 1.0000e+00
      -13  1    1    2    0    0 +1.4388594796e+01 -4.9451320331e+01 +1.0516617093e+02 1.1709995480e+02 1.0566000000e-01 0.0000e+00 1.0000e+00
       13  1    1    2    0    0 +3.3138142457e+01 -7.9606591916e+01 +1.1905694213e+01 8.7046554675e+01 1.0566000000e-01 0.0000e+00 -1.0000e+00
    10002  1    1    2    0    0 +5.7080093106e+01 +1.2588654365e+02 +9.9507663065e+00 1.7089346579e+02 1.0000000000e+02 0.0000e+00 0.0000e+00
   -10002  1    1    2    0    0 -1.0460683036e+02 +3.1713686015e+00 -2.9573946674e+02 3.2926353992e+02 1.0000000000e+02 0.0000e+00 0.0000e+00
<mgrwt>
<rscale>  0 0.68379681E+03</rscale>
<asrwt>0</asrwt>
<pdfrwt beam="1">  1        4 0.66948336E-01 0.68379681E+03</pdfrwt>
<pdfrwt beam="2">  1       -4 0.10912754E+00 0.68379681E+03</pdfrwt>
<totfact> 0.27117378E+00</totfact>
</mgrwt>
</event>
<event>
 6      1 +2.6141198e-09 4.07121700e+02 7.81860800e-03 1.04134100e-01
       -4 -1    0    0    0  501 -0.0000000000e+00 +0.0000000000e+00 +5.7198273767e+01 5.7212371231e+01 1.2700000000e+00 0.0000e+00 1.0000e+00
        4 -1    0    0  501    0 +0.0000000000e+00 -0.0000000000e+00 -7.2434136999e+02 7.2434248335e+02 1.2700000000e+00 0.0000e+00 1.0000e+00
      -13  1    1    2    0    0 -9.2589440430e+01 +9.6183095106e+01 -1.8812180656e+02 2.3068120325e+02 1.0566000000e-01 0.0000e+00 -1.0000e+00
       13  1    1    2    0    0 +1.3103628681e+01 -7.2821856836e+00 -6.4093789861e+01 6.5823706791e+01 1.0566000000e-01 0.0000e+00 1.0000e+00
    10002  1    1    2    0    0 +4.5377212354e+00 -7.5271635773e+01 -2.1809077208e+02 2.5149551672e+02 1.0000000000e+02 0.0000e+00 0.0000e+00
   -10002  1    1    2    0    0 +7.4948090514e+01 -1.3629273650e+01 -1.9683672772e+02 2.3355442781e+02 1.0000000000e+02 0.0000e+00 0.0000e+00
<mgrwt>
<rscale>  0 0.40712170E+03</rscale>
<asrwt>0</asrwt>
<pdfrwt beam="1">  1        4 0.18108721E+00 0.40712170E+03</pdfrwt>
<pdfrwt beam="2">  1       -4 0.14301472E-01 0.40712170E+03</pdfrwt>
<totfact> 0.14661006E+01</totfact>
</mgrwt>
</event>
<event>
 6      1 +2.6141198e-09 7.48216800e+02 7.81860800e-03 9.63815200e-02
        4 -1    0    0  501    0 +0.0000000000e+00 +0.0000000000e+00 +7.6068888052e+02 7.6068994068e+02 1.2700000000e+00 0.0000e+00 1.0000e+00
       -4 -1    0    0    0  501 -0.0000000000e+00 -0.0000000000e+00 -1.8398392069e+02 1.8398830390e+02 1.2700000000e+00 0.0000e+00 1.0000e+00
      -13  1    1    2    0    0 -5.4821330726e+01 -2.0178315689e+01 -1.3289156935e+01 5.9909561697e+01 1.0566000000e-01 0.0000e+00 1.0000e+00
       13  1    1    2    0    0 -1.6298974318e+01 -3.2222050749e+01 +9.3174831970e+01 9.9927361593e+01 1.0566000000e-01 0.0000e+00 -1.0000e+00
    10002  1    1    2    0    0 -6.4209674984e+01 -1.5438573828e+02 -2.7380792616e+01 1.9674233492e+02 1.0000000000e+02 0.0000e+00 0.0000e+00
   -10002  1    1    2    0    0 +1.3532998003e+02 +2.0678610472e+02 +5.2420007742e+02 5.8809898637e+02 1.0000000000e+02 0.0000e+00 0.0000e+00
<mgrwt>
<rscale>  0 0.74821680E+03</rscale>
<asrwt>0</asrwt>
<pdfrwt beam="1">  1        4 0.19017290E+00 0.74821680E+03</pdfrwt>
<pdfrwt beam="2">  1       -4 0.45996661E-01 0.74821680E+03</pdfrwt>
<totfact> 0.13890955E+00</totfact>
</mgrwt>
</event>
<event>
 6      1 +2.6141198e-09 5.97097300e+02 7.81860800e-03 9.91144700e-02
       -4 -1    0    0    0  501 -0.0000000000e+00 +0.0000000000e+00 +2.0436351028e+02 2.0436745640e+02 1.2700000000e+00 0.0000e+00 1.0000e+00
        4 -1    0    0  501    0 +0.0000000000e+00 -0.0000000000e+00 -4.3613188535e+02 4.3613373444e+02 1.2700000000e+00 0.0000e+00 1.0000e+00
      -13  1    1    2    0    0 +2.0422307221e+01 +5.2522357041e+01 -1.1041758714e+00 5.6363986639e+01 1.0566000000e-01 0.0000e+00 -1.0000e+00
       13  1    1    2    0    0 +8.5146953351e+01 -4.6057188043e+01 -6.4681486469e+00 9.7021215960e+01 1.0566000000e-01 0.0000e+00 1.0000e+00
    10002  1    1    2    0    0 +9.0632518371e+01 +1.0956628402e+02 -4.2543123316e+01 1.7896631337e+02 1.0000000000e+02 0.0000e+00 0.0000e+00
   -10002  1    1    2    0    0 -1.9620177894e+02 -1.1603145302e+02 -1.8165292723e+02 3.0814967487e+02 1.0000000000e+02 0.0000e+00 0.0000e+00
<mgrwt>
<rscale>  0 0.59709731E+03</rscale>
<asrwt>0</asrwt>
<pdfrwt beam="1">  1        4 0.10903369E+00 0.59709731E+03</pdfrwt>
<pdfrwt beam="2">  1       -4 0.51091603E-01 0.59709731E+03</pdfrwt>
<totfact> 0.48467230E+00</totfact>
</mgrwt>
</event>
<event>
 6      1 +2.6141198e-09 4.02440900e+02 7.81860800e-03 1.04293800e-01
       -4 -1    0    0    0  501 -0.0000000000e+00 +0.0000000000e+00 +9.1962526034e+02 9.1962613728e+02 1.2700000000e+00 0.0000e+00 1.0000e+00
        4 -1    0    0  501    0 +0.0000000000e+00 -0.0000000000e+00 -4.4018393905e+01 4.4036710844e+01 1.2700000000e+00 0.0000e+00 1.0000e+00
      -13  1    1    2    0    0 -4.5463777440e+00 +1.5059748873e+01 +7.5158097164e+00 1.7434567573e+01 1.0566000000e-01 0.0000e+00 1.0000e+00
       13  1    1    2    0    0 +6.6751640584e+01 +5.8427507709e+00 +1.6641796215e+02 1.7940141735e+02 1.0566000000e-01 0.0000e+00 -1.0000e+00
    10002  1    1    2    0    0 -1.7218191322e+01 -1.1777571148e+02 +2.7682817300e+02 3.1749239628e+02 1.0000000000e+02 0.0000e+00 0.0000e+00
   -10002  1    1    2    0    0 -4.4987071518e+01 +9.6873211838e+01 +4.2484492157e+02 4.4933446691e+02 1.0000000000e+02 0.0000e+00 0.0000e+00
<mgrwt>
<rscale>  0 0.40244093E+03</rscale>
<asrwt>0</asrwt>
<pdfrwt beam="1">  1        4 0.11006998E-01 0.40244093E+03</pdfrwt>
<pdfrwt beam="2">  1       -4 0.22990871E+00 0.40244093E+03</pdfrwt>
<totfact> 0.11296946E+01</totfact>
</mgrwt>
</event>
<event>
 6      1 +2.6141198e-09 3.97413600e+02 7.81860800e-03 1.04467900e-01
       -4 -1    0    0    0  501 -0.0000000000e+00 +0.0000000000e+00 +6.3761887770e+01 6.3774534353e+01 1.2700000000e+00 0.0000e+00 1.0000e+00
        4 -1    0    0  501    0 +0.0000000000e+00 -0.0000000000e+00 -6.1917295613e+02 6.1917425859e+02 1.2700000000e+00 0.0000e+00 1.0000e+00
      -13  1    1    2    0    0 +4.7775369551e+00 +1.6352302054e+01 -8.5516749765e+01 8.7197180552e+01 1.0566000000e-01 0.0000e+00 1.0000e+00
       13  1    1    2    0    0 -2.3089520035e+00 -9.5924106162e+01 -1.0483900206e+02 1.4211964298e+02 1.0566000000e-01 0.0000e+00 -1.0000e+00
    10002  1    1    2    0    0 +6.1751421064e+01 +5.5261801007e+01 -1.0621349382e+02 1.6777488168e+02 1.0000000000e+02 0.0000e+00 0.0000e+00
   -10002  1    1    2    0    0 -6.4220006015e+01 +2.4310003102e+01 -2.5884182270e+02 2.8585708773e+02 1.0000000000e+02 0.0000e+00 0.0000e+00
<mgrwt>
<rscale>  0 0.39741364E+03</rscale>
<asrwt>0</asrwt>
<pdfrwt beam="1">  1        4 0.15479496E+00 0.39741364E+03</pdfrwt>
<pdfrwt beam="2">  1       -4 0.15942217E-01 0.39741364E+03</pdfrwt>
<totfact> 0.18535905E+01</totfact>
</mgrwt>
</event>
<event>
 6      1 +2.6141198e-09 7.00773200e+02 7.81860800e-03 9.71591100e-02
        4 -1    0    0  501    0 +0.0000000000e+00 +0.0000000000e+00 +4.8693488192e+02 4.8693653809e+02 1.2700000000e+00 0.0000e+00 1.0000e+00
       -4 -1    0    0    0  501 -0.0000000000e+00 -0.0000000000e+00 -2.5212606852e+02 2.5212926710e+02 1.2700000000e+00 0.0000e+00 1.0000e+00
      -13  1    1    2    0    0 +4.4146771033e+01 +3.0420481358e+01 -2.2886176159e+01 5.8293492792e+01 1.0566000000e-01 0.0000e+00 -1.0000e+00
       13  1    1    2    0    0 -2.9295002681e+01 -3.0402398778e+01 -5.5644000784e+01 6.9848185522e+01 1.0566000000e-01 0.0000e+00 1.0000e+00
    10002  1    1    2    0    0 -2.2958884512e+02 +9.3068292940e+01 +1.2903133651e+02 2.9668473293e+02 1.0000000000e+02 0.0000e+00 0.0000e+00
   -10002  1    1    2    0    0 +2.1473707676e+02 -9.3086375521e+01 +1.8430765383e+02 3.1423939394e+02 1.0000000000e+02 0.0000e+00 0.0000e+00
<mgrwt>
<rscale>  0 0.70077321E+03</rscale>
<asrwt>0</asrwt>
<pdfrwt beam="1">  1        4 0.12173433E+00 0.70077321E+03</pdfrwt>
<pdfrwt beam="2">  1       -4 0.63032124E-01 0.70077321E+03</pdfrwt>
<totfact> 0.23642280E+00</totfact>
</mgrwt>
</event>
<event>
 6      1 +2.6141198e-09 5.27528500e+02 7.81860800e-03 1.00683300e-01
        4 -1    0    0  501    0 +0.0000000000e+00 +0.0000000000e+00 +1.7022231744e+02 1.7022705500e+02 1.2700000000e+00 0.0000e+00 1.0000e+00
       -4 -1    0    0    0  501 -0.0000000000e+00 -0.0000000000e+00 -4.0869861291e+02 4.0870058612e+02 1.2700000000e+00 0.0000e+00 1.0000e+00
      -13  1    1    2    0    0 +4.1706388430e+01 -2.0011151263e+01 -9.4061797818e+01 1.0482128593e+02 1.0566000000e-01 0.0000e+00 -1.0000e+00
       13  1    1    2    0    0 -6.3966885451e+01 -5.6571985438e+00 -2.3893327032e+01 6.8517651524e+01 1.0566000000e-01 0.0000e+00 1.0000e+00
    10002  1    1    2    0    0 +8.0931634673e+00 +1.2856233028e+02 -1.8588929185e+02 2.4728243142e+02 1.0000000000e+02 0.0000e+00 0.0000e+00
   -10002  1    1    2    0    0 +1.4167333555e+01 -1.0289398048e+02 +6.5368121230e+01 1.5830627224e+02 1.0000000000e+02 0.0000e+00 0.0000e+00
<mgrwt>
<rscale>  0 0.52752845E+03</rscale>
<asrwt>0</asrwt>
<pdfrwt beam="1">  1        4 0.42556419E-01 0.52752845E+03</pdfrwt>
<pdfrwt beam="2">  1       -4 0.10217549E+00 0.52752845E+03</pdfrwt>
<totfact> 0.82366028E+00</totfact>
</mgrwt>
</event>
<event>
 6      1 +2.6141198e-09 5.15185600e+02 7.81860800e-03 1.00989000e-01
       -4 -1    0    0    0  501 -0.0000000000e+00 +0.0000000000e+00 +9.8131037631e+01 9.8139255380e+01 1.2700000000e+00 0.0000e+00 -1.0000e+00
        4 -1    0    0  501    0 +0.0000000000e+00 -0.0000000000e+00 -6.7614093218e+02 6.7614212491e+02 1.2700000000e+00 0.0000e+00 -1.0000e+00
      -13  1    1    2    0    0 -1.8691101502e+01 +4.1573349112e+01 -1.2092303775e+02 1.2922883910e+02 1.0566000000e-01 0.0000e+00 1.0000e+00
       13  1    1    2    0    0 +7.1707319887e+01 +1.3174612126e+01 -7.8074427250e+01 1.0682292584e+02 1.0566000000e-01 0.0000e+00 -1.0000e+00
    10002  1    1    2    0    0 -1.6516853288e+01 -1.8276721475e+02 -2.5994728883e+02 3.3354048360e+02 1.0000000000e+02 0.0000e+00 0.0000e+00
   -10002  1    1    2    0    0 -3.6499365097e+01 +1.2801925351e+02 -1.1906514072e+02 2.0468913175e+02 1.0000000000e+02 0.0000e+00 0.0000e+00
<mgrwt>
<rscale>  0 0.51518561E+03</rscale>
<asrwt>0</asrwt>
<pdfrwt beam="1">  1        4 0.16903640E+00 0.51518561E+03</pdfrwt>
<pdfrwt beam="2">  1       -4 0.24533938E-01 0.51518561E+03</pdfrwt>
<totfact> 0.66921011E+00</totfact>
</mgrwt>
</event>
<event>
 6      1 +2.6141198e-09 3.38558700e+02 7.81860800e-03 1.06741100e-01
       -4 -1    0    0    0  501 -0.0000000000e+00 +0.0000000000e+00 +2.6598033999e+02 2.6598337196e+02 1.2700000000e+00 0.0000e+00 1.0000e+00
        4 -1    0    0  501    0 +0.0000000000e+00 -0.0000000000e+00 -1.0772800432e+02 1.0773549004e+02 1.2700000000e+00 0.0000e+00 1.0000e+00
      -13  1    1    2    0    0 -5.1815043742e+01 -1.9458023542e+01 +1.1523703165e+01 5.6535124806e+01 1.0566000000e-01 0.0000e+00 1.0000e+00
       13  1    1    2    0    0 +3.3064753403e+01 -3.8595479266e+01 +2.4691455148e+01 5.6502814609e+01 1.0566000000e-01 0.0000e+00 -1.0000e+00
    10002  1    1    2    0    0 -2.4907808526e+00 +3.5618032267e+01 +8.8994254155e+00 1.0655537520e+02 1.0000000000e+02 0.0000e+00 0.0000e+00
   -10002  1    1    2    0    0 +2.1241071192e+01 +2.2435470541e+01 +1.1313775194e+02 1.5412554739e+02 1.0000000000e+02 0.0000e+00 0.0000e+00
<mgrwt>
<rscale>  0 0.33855869E+03</rscale>
<asrwt>0</asrwt>
<pdfrwt beam="1">  1        4 0.26933316E-01 0.33855869E+03</pdfrwt>
<pdfrwt beam="2">  1       -4 0.66496399E-01 0.33855869E+03</pdfrwt>
<totfact> 0.52202270E+01</totfact>
</mgrwt>
</event>
<event>
 6      1 +2.6141198e-09 1.29612600e+03 7.81860800e-03 9.03264300e-02
        4 -1    0    0  501    0 +0.0000000000e+00 +0.0000000000e+00 +3.6371467290e+02 3.6371689016e+02 1.2700000000e+00 0.0000e+00 -1.0000e+00
       -4 -1    0    0    0  501 -0.0000000000e+00 -0.0000000000e+00 -1.1547050634e+03 1.1547057618e+03 1.2700000000e+00 0.0000e+00 -1.0000e+00
      -13  1    1    2    0    0 -1.9993668155e+01 -8.7801229490e+01 +8.6860312374e+01 1.2511405875e+02 1.0566000000e-01 0.0000e+00 1.0000e+00
       13  1    1    2    0    0 -2.0205231561e+01 -4.5064448704e+00 +1.1069947094e+01 2.3475824171e+01 1.0566000000e-01 0.0000e+00 -1.0000e+00
    10002  1    1    2    0    0 -1.6239360959e+01 +4.4432328625e+02 -8.8962712134e+02 9.9956156117e+02 1.0000000000e+02 0.0000e+00 0.0000e+00
   -10002  1    1    2    0    0 +5.6438260676e+01 -3.5201561189e+02 +7.0647137347e-01 3.7027120788e+02 1.0000000000e+02 0.0000e+00 0.0000e+00
<mgrwt>
<rscale>  0 0.12961256E+04</rscale>
<asrwt>0</asrwt>
<pdfrwt beam="1">  1        4 0.90929035E-01 0.12961256E+04</pdfrwt>
<pdfrwt beam="2">  1       -4 0.28867662E+00 0.12961256E+04</pdfrwt>
<totfact> 0.71905986E-02</totfact>
</mgrwt>
</event>
<event>
 6      1 +2.6141198e-09 5.74142700e+02 7.81860800e-03 9.96055300e-02
       -4 -1    0    0    0  501 -0.0000000000e+00 +0.0000000000e+00 +3.4103044695e+02 3.4103281168e+02 1.2700000000e+00 0.0000e+00 -1.0000e+00
        4 -1    0    0  501    0 +0.0000000000e+00 -0.0000000000e+00 -2.4164496793e+02 2.4164830524e+02 1.2700000000e+00 0.0000e+00 -1.0000e+00
      -13  1    1    2    0    0 +1.3119205442e+01 +7.2143192881e+01 +8.5016853899e+01 1.1227034533e+02 1.0566000000e-01 0.0000e+00 1.0000e+00
       13  1    1    2    0    0 +4.6635702501e+00 -3.0626487733e+01 -1.0639950061e+00 3.0997965865e+01 1.0566000000e-01 0.0000e+00 -1.0000e+00
    10002  1    1    2    0    0 +1.6160527123e+02 -3.6764543052e+01 -8.4209337393e+01 2.1109028357e+02 1.0000000000e+02 0.0000e+00 0.0000e+00
   -10002  1    1    2    0    0 -1.7938804692e+02 -4.7521620957e+00 +9.9641957516e+01 2.2832252215e+02 1.0000000000e+02 0.0000e+00 0.0000e+00
<mgrwt>
<rscale>  0 0.57414267E+03</rscale>
<asrwt>0</asrwt>
<pdfrwt beam="1">  1        4 0.60411955E-01 0.57414267E+03</pdfrwt>
<pdfrwt beam="2">  1       -4 0.85258324E-01 0.57414267E+03</pdfrwt>
<totfact> 0.60634535E+00</totfact>
</mgrwt>
</event>
<event>
 6      1 +2.6141198e-09 4.93924200e+02 7.81860800e-03 1.01537700e-01
       -4 -1    0    0    0  501 -0.0000000000e+00 +0.0000000000e+00 +3.1324197231e+02 3.1324454683e+02 1.2700000000e+00 0.0000e+00 -1.0000e+00
        4 -1    0    0  501    0 +0.0000000000e+00 -0.0000000000e+00 -1.9470116945e+02 1.9470531140e+02 1.2700000000e+00 0.0000e+00 -1.0000e+00
      -13  1    1    2    0    0 -6.1384986257e+00 +1.0275092399e+02 +8.5645664944e+01 1.3390528232e+02 1.0566000000e-01 0.0000e+00 1.0000e+00
       13  1    1    2    0    0 -1.2150043418e+01 -2.0509945493e+01 +3.4930399510e+01 4.2289778826e+01 1.0566000000e-01 0.0000e+00 -1.0000e+00
    10002  1    1    2    0    0 +4.3377455470e+01 -3.7790677996e+00 +1.1404185370e+02 1.5780186752e+02 1.0000000000e+02 0.0000e+00 0.0000e+00
   -10002  1    1    2    0    0 -2.5088913426e+01 -7.8461910698e+01 -1.1607711529e+02 1.7395292956e+02 1.0000000000e+02 0.0000e+00 0.0000e+00
<mgrwt>
<rscale>  0 0.49392422E+03</rscale>
<asrwt>0</asrwt>
<pdfrwt beam="1">  1        4 0.48676132E-01 0.49392422E+03</pdfrwt>
<pdfrwt beam="2">  1       -4 0.78311332E-01 0.49392422E+03</pdfrwt>
<totfact> 0.11553380E+01</totfact>
</mgrwt>
</event>
<event>
 6      1 +2.6141198e-09 4.24731800e+02 7.81860800e-03 1.03553700e-01
       -4 -1    0    0    0  501 -0.0000000000e+00 +0.0000000000e+00 +4.5708026471e+02 4.5708202905e+02 1.2700000000e+00 0.0000e+00 1.0000e+00
        4 -1    0    0  501    0 +0.0000000000e+00 -0.0000000000e+00 -9.8662118104e+01 9.8670291622e+01 1.2700000000e+00 0.0000e+00 1.0000e+00
      -13  1    1    2    0    0 -5.3919236317e+01 -3.7146499282e+01 +1.2894256313e+02 1.4461446056e+02 1.0566000000e-01 0.0000e+00 1.0000e+00
       13  1    1    2    0    0 +4.4534592378e+01 -3.1404095115e+01 +3.9802111374e+01 6.7481600027e+01 1.0566000000e-01 0.0000e+00 -1.0000e+00
    10002  1    1    2    0    0 -7.7399244866e+01 -6.8445572396e+00 +4.7484168508e+01 1.3524879788e+02 1.0000000000e+02 0.0000e+00 0.0000e+00
   -10002  1    1    2    0    0 +8.6783888805e+01 +7.5395151636e+01 +1.4218930359e+02 2.0840746220e+02 1.0000000000e+02 0.0000e+00 0.0000e+00
<mgrwt>
<rscale>  0 0.42473177E+03</rscale>
<asrwt>0</asrwt>
<pdfrwt beam="1">  1        4 0.24666772E-01 0.42473177E+03</pdfrwt>
<pdfrwt beam="2">  1       -4 0.11427131E+00 0.42473177E+03</pdfrwt>
<totfact> 0.18052271E+01</totfact>
</mgrwt>
</event>
<event>
 6      1 +2.6141198e-09 4.31153800e+02 7.81860800e-03 1.03349600e-01
        4 -1    0    0  501    0 +0.0000000000e+00 +0.0000000000e+00 +4.7883378141e+01 4.7900217141e+01 1.2700000000e+00 0.0000e+00 -1.0000e+00
       -4 -1    0    0    0  501 -0.0000000000e+00 -0.0000000000e+00 -9.7036599754e+02 9.7036682862e+02 1.2700000000e+00 0.0000e+00 -1.0000e+00
      -13  1    1    2    0    0 +3.3570109510e+01 +1.6350862472e+01 -1.2899723933e+02 1.3429297031e+02 1.0566000000e-01 0.0000e+00 1.0000e+00
       13  1    1    2    0    0 -1.4136016578e+01 -8.3933679401e+01 -3.6418671648e+02 3.7400088921e+02 1.0566000000e-01 0.0000e+00 -1.0000e+00
    10002  1    1    2    0    0 +6.4628238387e+01 +5.0970287579e+01 -2.9350237956e+02 3.2080901830e+02 1.0000000000e+02 0.0000e+00 0.0000e+00
   -10002  1    1    2    0    0 -8.4062331318e+01 +1.6612529350e+01 -1.3579628402e+02 1.8916416794e+02 1.0000000000e+02 0.0000e+00 0.0000e+00
<mgrwt>
<rscale>  0 0.43115379E+03</rscale>
<asrwt>0</asrwt>
<pdfrwt beam="1">  1        4 0.11973056E-01 0.43115379E+03</pdfrwt>
<pdfrwt beam="2">  1       -4 0.24259364E+00 0.43115379E+03</pdfrwt>
<totfact> 0.81861355E+00</totfact>
</mgrwt>
</event>
<event>
 6      1 +2.6141198e-09 6.23262700e+02 7.81860800e-03 9.85828500e-02
        4 -1    0    0  501    0 +0.0000000000e+00 +0.0000000000e+00 +8.2488288865e+02 8.2488386631e+02 1.2700000000e+00 0.0000e+00 -1.0000e+00
       -4 -1    0    0    0  501 -0.0000000000e+00 -0.0000000000e+00 -1.1772631018e+02 1.1773316019e+02 1.2700000000e+00 0.0000e+00 -1.0000e+00
      -13  1    1    2    0    0 -7.8520581868e+01 -1.6695899460e+02 +3.0069850304e+02 3.5278943939e+02 1.0566000000e-01 0.0000e+00 -1.0000e+00
       13  1    1    2    0    0 -3.5821678368e+00 +1.3832752335e+01 +2.7908643502e+01 3.1354114718e+01 1.0566000000e-01 0.0000e+00 1.0000e+00
    10002  1    1    2    0    0 +3.0551133518e+01 -8.4534765308e+01 +6.5255451419e+01 1.4945826255e+02 1.0000000000e+02 0.0000e+00 0.0000e+00
   -10002  1    1    2    0    0 +5.1551616187e+01 +2.3766100757e+02 +3.1329398052e+02 4.0901520984e+02 1.0000000000e+02 0.0000e+00 0.0000e+00
<mgrwt>
<rscale>  0 0.62326273E+03</rscale>
<asrwt>0</asrwt>
<pdfrwt beam="1">  1        4 0.20622170E+00 0.62326273E+03</pdfrwt>
<pdfrwt beam="2">  1       -4 0.29432556E-01 0.62326273E+03</pdfrwt>
<totfact> 0.26634553E+00</totfact>
</mgrwt>
</event>
<event>
 6      1 +2.6141198e-09 5.04680300e+02 7.81860800e-03 1.01256400e-01
        4 -1    0    0  501    0 +0.0000000000e+00 +0.0000000000e+00 +1.6963361494e+02 1.6963836895e+02 1.2700000000e+00 0.0000e+00 -1.0000e+00
       -4 -1    0    0    0  501 -0.0000000000e+00 -0.0000000000e+00 -3.7535996844e+02 3.7536211690e+02 1.2700000000e+00 0.0000e+00 -1.0000e+00
      -13  1    1    2    0    0 -1.0015958246e+02 +9.2262615815e+01 -3.3007033577e+01 1.4012068964e+02 1.0566000000e-01 0.0000e+00 1.0000e+00
       13  1    1    2    0    0 +2.0423864039e+01 +2.4068512017e+00 +6.5931150941e+00 2.1596469287e+01 1.0566000000e-01 0.0000e+00 -1.0000e+00
    10002  1    1    2    0    0 +1.6439396433e+02 -4.7590506709e+01 -1.2179129611e+02 2.3264425986e+02 1.0000000000e+02 0.0000e+00 0.0000e+00
   -10002  1    1    2    0    0 -8.4658245915e+01 -4.7078960308e+01 -5.7521138906e+01 1.5063906706e+02 1.0000000000e+02 0.0000e+00 0.0000e+00
<mgrwt>
<rscale>  0 0.50468029E+03</rscale>
<asrwt>0</asrwt>
<pdfrwt beam="1">  1        4 0.42409267E-01 0.50468029E+03</pdfrwt>
<pdfrwt beam="2">  1       -4 0.93840854E-01 0.50468029E+03</pdfrwt>
<totfact> 0.10126889E+01</totfact>
</mgrwt>
</event>
<event>
 6      1 +2.6141198e-09 3.70841200e+02 7.81860800e-03 1.05437200e-01
        4 -1    0    0  501    0 +0.0000000000e+00 +0.0000000000e+00 +7.0259056238e+01 7.0270533536e+01 1.2700000000e+00 0.0000e+00 -1.0000e+00
       -4 -1    0    0    0  501 -0.0000000000e+00 -0.0000000000e+00 -4.8929091993e+02 4.8929256813e+02 1.2700000000e+00 0.0000e+00 -1.0000e+00
      -13  1    1    2    0    0 -1.6005058374e+01 +1.3849723435e+01 -1.8944314378e+01 2.8405544248e+01 1.0566000000e-01 0.0000e+00 -1.0000e+00
       13  1    1    2    0    0 +6.2231682479e+01 +4.6816963346e+00 -1.0880003605e+02 1.2542790596e+02 1.0566000000e-01 0.0000e+00 1.0000e+00
    10002  1    1    2    0    0 -4.5170817873e+01 +2.7436784352e+01 -2.7120804652e+02 2.9384857396e+02 1.0000000000e+02 0.0000e+00 0.0000e+00
   -10002  1    1    2    0    0 -1.0558062319e+00 -4.5968204121e+01 -2.0079466745e+01 1.1188107750e+02 1.0000000000e+02 0.0000e+00 0.0000e+00
<mgrwt>
<rscale>  0 0.37084115E+03</rscale>
<asrwt>0</asrwt>
<pdfrwt beam="1">  1        4 0.17566406E-01 0.37084115E+03</pdfrwt>
<pdfrwt beam="2">  1       -4 0.12232436E+00 0.37084115E+03</pdfrwt>
<totfact> 0.28292376E+01</totfact>
</mgrwt>
</event>
<event>
 6      1 +2.6141198e-09 3.18891200e+02 7.81860800e-03 1.07616100e-01
        4 -1    0    0  501    0 +0.0000000000e+00 +0.0000000000e+00 +9.6731808830e+01 9.6740145439e+01 1.2700000000e+00 0.0000e+00 -1.0000e+00
       -4 -1    0    0    0  501 -0.0000000000e+00 -0.0000000000e+00 -2.6279728378e+02 2.6280035248e+02 1.2700000000e+00 0.0000e+00 -1.0000e+00
      -13  1    1    2    0    0 +4.5159169417e+01 -8.3407125029e+00 -1.0625170420e+01 4.7136222568e+01 1.0566000000e-01 0.0000e+00 -1.0000e+00
       13  1    1    2    0    0 -2.1856942165e+01 +4.2785204245e+01 -1.3764836592e+01 4.9977810211e+01 1.0566000000e-01 0.0000e+00 1.0000e+00
    10002  1    1    2    0    0 -2.2190498862e+01 -3.6645933200e+01 -3.0735846410e+01 1.1304881651e+02 1.0000000000e+02 0.0000e+00 0.0000e+00
   -10002  1    1    2    0    0 -1.1117283894e+00 +2.2014414576e+00 -1.1093962153e+02 1.4937764863e+02 1.0000000000e+02 0.0000e+00 0.0000e+00
<mgrwt>
<rscale>  0 0.31889125E+03</rscale>
<asrwt>0</asrwt>
<pdfrwt beam="1">  1        4 0.24184378E-01 0.31889125E+03</pdfrwt>
<pdfrwt beam="2">  1       -4 0.65700745E-01 0.31889125E+03</pdfrwt>
<totfact> 0.65231017E+01</totfact>
</mgrwt>
</event>
<event>
 6      1 +2.6141198e-09 4.37302000e+02 7.81860800e-03 1.03157800e-01
       -4 -1    0    0    0  501 -0.0000000000e+00 +0.0000000000e+00 +2.3184257098e+02 2.3184604939e+02 1.2700000000e+00 0.0000e+00 -1.0000e+00
        4 -1    0    0  501    0 +0.0000000000e+00 -0.0000000000e+00 -2.0620306938e+02 2.0620698029e+02 1.2700000000e+00 0.0000e+00 -1.0000e+00
      -13  1    1    2    0    0 -6.0779857747e+01 -7.5693526062e+00 -1.6873827826e+01 6.3531279195e+01 1.0566000000e-01 0.0000e+00 1.0000e+00
       13  1    1    2    0    0 -3.5998869536e+00 +6.0527680069e+01 +2.6567947450e+01 6.6199896045e+01 1.0566000000e-01 0.0000e+00 -1.0000e+00
    10002  1    1    2    0    0 +9.3324019590e+01 -4.5242095897e+01 -8.1494265264e+01 1.6552200804e+02 1.0000000000e+02 0.0000e+00 0.0000e+00
   -10002  1    1    2    0    0 -2.8944274890e+01 -7.7162315663e+00 +9.7439647242e+01 1.4279984640e+02 1.0000000000e+02 0.0000e+00 0.0000e+00
<mgrwt>
<rscale>  0 0.43730204E+03</rscale>
<asrwt>0</asrwt>
<pdfrwt beam="1">  1        4 0.51551691E-01 0.43730204E+03</pdfrwt>
<pdfrwt beam="2">  1       -4 0.57961566E-01 0.43730204E+03</pdfrwt>
<totfact> 0.19698149E+01</totfact>
</mgrwt>
</event>
<event>
 6      1 +2.6141198e-09 4.41209700e+02 7.81860800e-03 1.03037600e-01
        4 -1    0    0  501    0 +0.0000000000e+00 +0.0000000000e+00 +1.2021691730e+02 1.2022362541e+02 1.2700000000e+00 0.0000e+00 -1.0000e+00
       -4 -1    0    0    0  501 -0.0000000000e+00 -0.0000000000e+00 -4.0480337056e+02 4.0480536276e+02 1.2700000000e+00 0.0000e+00 -1.0000e+00
      -13  1    1    2    0    0 -5.1152133057e+00 -1.1611868306e+02 -4.8032478037e+01 1.2576503517e+02 1.0566000000e-01 0.0000e+00 -1.0000e+00
       13  1    1    2    0    0 -3.4222551913e+01 +8.1124788031e+00 +6.3233288151e-01 3.5176787526e+01 1.0566000000e-01 0.0000e+00 1.0000e+00
    10002  1    1    2    0    0 +4.4960373755e+01 +5.9033803841e+01 -2.1785703411e+02 2.5093447853e+02 1.0000000000e+02 0.0000e+00 0.0000e+00
   -10002  1    1    2    0    0 -5.6226085363e+00 +4.8972400412e+01 -1.9329273998e+01 1.1315268694e+02 1.0000000000e+02 0.0000e+00 0.0000e+00
<mgrwt>
<rscale>  0 0.44120969E+03</rscale>
<asrwt>0</asrwt>
<pdfrwt beam="1">  1        4 0.30055318E-01 0.44120969E+03</pdfrwt>
<pdfrwt beam="2">  1       -4 0.10120193E+00 0.44120969E+03</pdfrwt>
<totfact> 0.16636670E+01</totfact>
</mgrwt>
</event>
<event>
 6      1 +2.6141198e-09 3.87282400e+02 7.81860800e-03 1.04827400e-01
        4 -1    0    0  501    0 +0.0000000000e+00 +0.0000000000e+00 +1.0739831990e+02 1.0740582860e+02 1.2700000000e+00 0.0000e+00 -1.0000e+00
       -4 -1    0    0    0  501 -0.0000000000e+00 -0.0000000000e+00 -3.4911792163e+02 3.4912023159e+02 1.2700000000e+00 0.0000e+00 -1.0000e+00
      -13  1    1    2    0    0 -2.2557466656e+01 -6.7844534377e+01 -2.9360223680e+01 7.7290064338e+01 1.0566000000e-01 0.0000e+00 1.0000e+00
       13  1    1    2    0    0 +9.1893502657e+00 +1.5416976966e+01 -2.1120549588e+00 1.8072057914e+01 1.0566000000e-01 0.0000e+00 -1.0000e+00
    10002  1    1    2    0    0 +1.1017344303e+02 +2.9406118289e+01 -1.2317706813e+02 1.9538550984e+02 1.0000000000e+02 0.0000e+00 0.0000e+00
   -10002  1    1    2    0    0 -9.6805326640e+01 +2.3021439122e+01 -8.7070254966e+01 1.6577842810e+02 1.0000000000e+02 0.0000e+00 0.0000e+00
<mgrwt>
<rscale>  0 0.38728243E+03</rscale>
<asrwt>0</asrwt>
<pdfrwt beam="1">  1        4 0.26850808E-01 0.38728243E+03</pdfrwt>
<pdfrwt beam="2">  1       -4 0.87280705E-01 0.38728243E+03</pdfrwt>
<totfact> 0.28913449E+01</totfact>
</mgrwt>
</event>
<event>
 6      1 +2.6141198e-09 3.96257500e+02 7.81860800e-03 1.04508300e-01
        4 -1    0    0  501    0 +0.0000000000e+00 +0.0000000000e+00 +6.4860593424e+02 6.4860717759e+02 1.2700000000e+00 0.0000e+00 -1.0000e+00
       -4 -1    0    0    0  501 -0.0000000000e+00 -0.0000000000e+00 -6.0514147975e+01 6.0527473144e+01 1.2700000000e+00 0.0000e+00 -1.0000e+00
      -13  1    1    2    0    0 +3.5774402681e+01 +4.9392219990e+01 +7.3105643206e+01 9.5204230554e+01 1.0566000000e-01 0.0000e+00 1.0000e+00
       13  1    1    2    0    0 -3.0207022694e+01 -1.9252985152e+01 +2.6202398524e+01 4.4381510899e+01 1.0566000000e-01 0.0000e+00 -1.0000e+00
    10002  1    1    2    0    0 -1.0335470435e+01 -5.5242985770e+01 +6.1863227253e+01 1.3032907700e+02 1.0000000000e+02 0.0000e+00 0.0000e+00
   -10002  1    1    2    0    0 +4.7680904481e+00 +2.5103750932e+01 +4.2692051728e+02 4.3921983228e+02 1.0000000000e+02 0.0000e+00 0.0000e+00
<mgrwt>
<rscale>  0 0.39625750E+03</rscale>
<asrwt>0</asrwt>
<pdfrwt beam="1">  1        4 0.16215330E+00 0.39625750E+03</pdfrwt>
<pdfrwt beam="2">  1       -4 0.15130358E-01 0.39625750E+03</pdfrwt>
<totfact> 0.17965209E+01</totfact>
</mgrwt>
</event>
<event>
 6      1 +2.6141198e-09 4.49177100e+02 7.81860800e-03 1.02796800e-01
       -4 -1    0    0    0  501 -0.0000000000e+00 +0.0000000000e+00 +2.6162522626e+02 2.6162830870e+02 1.2700000000e+00 0.0000e+00 -1.0000e+00
        4 -1    0    0  501    0 +0.0000000000e+00 -0.0000000000e+00 -1.9278864806e+02 1.9279283109e+02 1.2700000000e+00 0.0000e+00 -1.0000e+00
      -13  1    1    2    0    0 -1.0631647202e+01 -3.2139848896e+01 -4.7938351855e+01 5.8686442658e+01 1.0566000000e-01 0.0000e+00 -1.0000e+00
       13  1    1    2    0    0 -7.1590251014e+01 +1.9047154885e+01 +2.1222734806e+01 7.7060844702e+01 1.0566000000e-01 0.0000e+00 1.0000e+00
    10002  1    1    2    0    0 -6.4845743903e+01 -2.5644666998e+01 +4.2000616093e+01 1.2894445006e+02 1.0000000000e+02 0.0000e+00 0.0000e+00
   -10002  1    1    2    0    0 +1.4706764212e+02 +3.8737361008e+01 +5.3551579153e+01 1.8972940238e+02 1.0000000000e+02 0.0000e+00 0.0000e+00
<mgrwt>
<rscale>  0 0.44917713E+03</rscale>
<asrwt>0</asrwt>
<pdfrwt beam="1">  1        4 0.48198070E-01 0.44917713E+03</pdfrwt>
<pdfrwt beam="2">  1       -4 0.65407214E-01 0.44917713E+03</pdfrwt>
<totfact> 0.17487876E+01</totfact>
</mgrwt>
</event>
<event>
 6      1 +2.6141198e-09 4.04497900e+02 7.81860800e-03 1.04223300e-01
        4 -1    0    0  501    0 +0.0000000000e+00 +0.0000000000e+00 +2.0611683057e+02 2.0612074312e+02 1.2700000000e+00 0.0000e+00 -1.0000e+00
       -4 -1    0    0    0  501 -0.0000000000e+00 -0.0000000000e+00 -1.9844586088e+02 1.9844992467e+02 1.2700000000e+00 0.0000e+00 -1.0000e+00
      -13  1    1    2    0    0 -4.2149994006e+01 +4.6412774524e+01 +7.0492456545e+00 6.3090971320e+01 1.0566000000e-01 0.0000e+00 -1.0000e+00
       13  1    1    2    0    0 -3.6784354087e+01 -2.7238684462e+01 -5.2259382961e+01 6.9470057638e+01 1.0566000000e-01 0.0000e+00 1.0000e+00
    10002  1    1    2    0    0 +5.7363016636e+01 -8.5270691213e+01 +4.3535228412e+01 1.4985633977e+02 1.0000000000e+02 0.0000e+00 0.0000e+00
   -10002  1    1    2    0    0 +2.1571331456e+01 +6.6096601150e+01 +9.3458785819e+00 1.2215329906e+02 1.0000000000e+02 0.0000e+00 0.0000e+00
<mgrwt>
<rscale>  0 0.40449794E+03</rscale>
<asrwt>0</asrwt>
<pdfrwt beam="1">  1        4 0.51530205E-01 0.40449794E+03</pdfrwt>
<pdfrwt beam="2">  1       -4 0.49612462E-01 0.40449794E+03</pdfrwt>
<totfact> 0.27205175E+01</totfact>
</mgrwt>
</event>
<event>
 6      1 +2.6141198e-09 3.68668000e+02 7.81860800e-03 1.05520300e-01
        4 -1    0    0  501    0 +0.0000000000e+00 +0.0000000000e+00 +2.6212162182e+02 2.6212469843e+02 1.2700000000e+00 0.0000e+00 1.0000e+00
       -4 -1    0    0    0  501 -0.0000000000e+00 -0.0000000000e+00 -1.2962380264e+02 1.2963002395e+02 1.2700000000e+00 0.0000e+00 1.0000e+00
      -13  1    1    2    0    0 -5.9041115946e+01 +2.7244621444e+01 -4.8488886499e+00 6.5204644428e+01 1.0566000000e-01 0.0000e+00 1.0000e+00
       13  1    1    2    0    0 +3.4076437980e+01 -5.4184947727e+00 +3.4735976506e+01 4.8960830659e+01 1.0566000000e-01 0.0000e+00 -1.0000e+00
    10002  1    1    2    0    0 +4.0989734090e+01 +3.4236067241e+01 +1.1461557954e+02 1.6121103460e+02 1.0000000000e+02 0.0000e+00 0.0000e+00
   -10002  1    1    2    0    0 -1.6025056124e+01 -5.6062193912e+01 -1.2004848216e+01 1.1637821270e+02 1.0000000000e+02 0.0000e+00 0.0000e+00
<mgrwt>
<rscale>  0 0.36866799E+03</rscale>
<asrwt>0</asrwt>
<pdfrwt beam="1">  1        4 0.65531567E-01 0.36866799E+03</pdfrwt>
<pdfrwt beam="2">  1       -4 0.32407113E-01 0.36866799E+03</pdfrwt>
<totfact> 0.38055554E+01</totfact>
</mgrwt>
</event>
<event>
 6      1 +2.6141198e-09 3.74463300e+02 7.81860800e-03 1.05299900e-01
       -4 -1    0    0    0  501 -0.0000000000e+00 +0.0000000000e+00 +8.6202618546e+01 8.6211973323e+01 1.2700000000e+00 0.0000e+00 1.0000e+00
        4 -1    0    0  501    0 +0.0000000000e+00 -0.0000000000e+00 -4.0663383774e+02 4.0663582097e+02 1.2700000000e+00 0.0000e+00 1.0000e+00
      -13  1    1    2    0    0 -3.1179546069e+00 +3.5069373298e+01 -9.7899702551e+01 1.0403819255e+02 1.0566000000e-01 0.0000e+00 -1.0000e+00
       13  1    1    2    0    0 +7.6946474605e+00 -3.2896100127e+01 -3.3000591804e+01 4.7227229715e+01 1.0566000000e-01 0.0000e+00 1.0000e+00
    10002  1    1    2    0    0 +6.2893615046e+01 +7.5941818261e+01 -9.5867178471e+01 1.7003906164e+02 1.0000000000e+02 0.0000e+00 0.0000e+00
   -10002  1    1    2    0    0 -6.7470307899e+01 -7.8115091432e+01 -9.3663746367e+01 1.7154331039e+02 1.0000000000e+02 0.0000e+00 0.0000e+00
<mgrwt>
<rscale>  0 0.37446333E+03</rscale>
<asrwt>0</asrwt>
<pdfrwt beam="1">  1        4 0.10165987E+00 0.37446333E+03</pdfrwt>
<pdfrwt beam="2">  1       -4 0.21552073E-01 0.37446333E+03</pdfrwt>
<totfact> 0.30497922E+01</totfact>
</mgrwt>
</event>
<event>
 6      1 +2.6141198e-09 7.27188500e+02 7.81860800e-03 9.67183400e-02
        4 -1    0    0  501    0 +0.0000000000e+00 +0.0000000000e+00 +5.5837824150e+02 5.5837968577e+02 1.2700000000e+00 0.0000e+00 -1.0000e+00
       -4 -1    0    0    0  501 -0.0000000000e+00 -0.0000000000e+00 -2.3675503185e+02 2.3675843809e+02 1.2700000000e+00 0.0000e+00 -1.0000e+00
      -13  1    1    2    0    0 -4.4344690313e+01 -4.9617320730e+00 +1.3639901210e+02 1.4351227128e+02 1.0566000000e-01 0.0000e+00 1.0000e+00
       13  1    1    2    0    0 -2.4348316433e+01 +9.4849934880e+00 -1.7903062045e+01 3.1675485935e+01 1.0566000000e-01 0.0000e+00 -1.0000e+00
    10002  1    1    2    0    0 +3.0915015492e+02 +7.8014416267e+00 +1.1273665868e+02 3.4401196925e+02 1.0000000000e+02 0.0000e+00 0.0000e+00
   -10002  1    1    2    0    0 -2.4045714818e+02 -1.2324703042e+01 +9.0390600914e+01 2.7593839738e+02 1.0000000000e+02 0.0000e+00 0.0000e+00
<mgrwt>
<rscale>  0 0.72718852E+03</rscale>
<asrwt>0</asrwt>
<pdfrwt beam="1">  1        4 0.13959517E+00 0.72718852E+03</pdfrwt>
<pdfrwt beam="2">  1       -4 0.59189365E-01 0.72718852E+03</pdfrwt>
<totfact> 0.19115056E+00</totfact>
</mgrwt>
</event>
<event>
 6      1 +2.6141198e-09 4.08227200e+02 7.81860800e-03 1.04096800e-01
        4 -1    0    0  501    0 +0.0000000000e+00 +0.0000000000e+00 +1.1508908761e+02 1.1509609458e+02 1.2700000000e+00 0.0000e+00 1.0000e+00
       -4 -1    0    0    0  501 -0.0000000000e+00 -0.0000000000e+00 -3.6198176442e+02 3.6198399228e+02 1.2700000000e+00 0.0000e+00 1.0000e+00
      -13  1    1    2    0    0 -1.8099508303e+01 -6.9011191193e+01 -5.7270251415e+01 9.1487865709e+01 1.0566000000e-01 0.0000e+00 -1.0000e+00
       13  1    1    2    0    0 +3.3353642579e+01 +6.3773247300e+00 -1.0038608331e+02 1.0597411302e+02 1.0566000000e-01 0.0000e+00 1.0000e+00
    10002  1    1    2    0    0 -2.5082207642e+01 +4.4370890126e+01 +3.6135650972e+01 1.1791385967e+02 1.0000000000e+02 0.0000e+00 0.0000e+00
   -10002  1    1    2    0    0 +9.8280733652e+00 +1.8262976337e+01 -1.2537199305e+02 1.6170424847e+02 1.0000000000e+02 0.0000e+00 0.0000e+00
<mgrwt>
<rscale>  0 0.40822716E+03</rscale>
<asrwt>0</asrwt>
<pdfrwt beam="1">  1        4 0.28773427E-01 0.40822716E+03</pdfrwt>
<pdfrwt beam="2">  1       -4 0.90496593E-01 0.40822716E+03</pdfrwt>
<totfact> 0.23402663E+01</totfact>
</mgrwt>
</event>
<event>
 6      1 +2.6141198e-09 3.91392700e+02 7.81860800e-03 1.04680100e-01
       -4 -1    0    0    0  501 -0.0000000000e+00 +0.0000000000e+00 +1.3436629512e+02 1.3437229686e+02 1.2700000000e+00 0.0000e+00 -1.0000e+00
        4 -1    0    0  501    0 +0.0000000000e+00 -0.0000000000e+00 -2.8500608614e+02 2.8500891571e+02 1.2700000000e+00 0.0000e+00 -1.0000e+00
      -13  1    1    2    0    0 -4.0781215166e+01 +1.6513731449e+00 -1.8145282162e+01 4.4666508398e+01 1.0566000000e-01 0.0000e+00 -1.0000e+00
       13  1    1    2    0    0 +4.2922962144e+01 +4.3041696128e+01 -7.3672126767e+01 9.5512102433e+01 1.0566000000e-01 0.0000e+00 1.0000e+00
    10002  1    1    2    0    0 -6.4136399937e+00 -5.0937106590e+01 -1.1782700403e+02 1.6284632782e+02 1.0000000000e+02 0.0000e+00 0.0000e+00
   -10002  1    1    2    0    0 +4.2718930158e+00 +6.2440373168e+00 +5.9004621937e+01 1.1635627393e+02 1.0000000000e+02 0.0000e+00 0.0000e+00
<mgrwt>
<rscale>  0 0.39139271E+03</rscale>
<asrwt>0</asrwt>
<pdfrwt beam="1">  1        4 0.71252624E-01 0.39139271E+03</pdfrwt>
<pdfrwt beam="2">  1       -4 0.33592678E-01 0.39139271E+03</pdfrwt>
<totfact> 0.29675646E+01</totfact>
</mgrwt>
</event>
<event>
 6      1 +2.6141198e-09 6.23077500e+02 7.81860800e-03 9.85865100e-02
       -4 -1    0    0    0  501 -0.0000000000e+00 +0.0000000000e+00 +5.9389192016e+02 5.9389327806e+02 1.2700000000e+00 0.0000e+00 -1.0000e+00
        4 -1    0    0  501    0 +0.0000000000e+00 -0.0000000000e+00 -1.6342032442e+02 1.6342525917e+02 1.2700000000e+00 0.0000e+00 -1.0000e+00
      -13  1    1    2    0    0 -2.1548893473e+01 +4.5566003693e+01 -7.8169923785e+01 9.3011631805e+01 1.0566000000e-01 0.0000e+00 -1.0000e+00
       13  1    1    2    0    0 -1.4197315048e+01 -5.2021171496e+00 +2.4952809721e+01 2.9176697113e+01 1.0566000000e-01 0.0000e+00 1.0000e+00
    10002  1    1    2    0    0 +1.3723271138e+02 -6.7641390622e+01 +6.8271671077e+01 1.9511328983e+02 1.0000000000e+02 0.0000e+00 0.0000e+00
   -10002  1    1    2    0    0 -1.0148650286e+02 +2.7277504079e+01 +4.1541703872e+02 4.4001691848e+02 1.0000000000e+02 0.0000e+00 0.0000e+00
<mgrwt>
<rscale>  0 0.62307750E+03</rscale>
<asrwt>0</asrwt>
<pdfrwt beam="1">  1        4 0.40855868E-01 0.62307750E+03</pdfrwt>
<pdfrwt beam="2">  1       -4 0.14847376E+00 0.62307750E+03</pdfrwt>
<totfact> 0.35234619E+00</totfact>
</mgrwt>
</event>
<event>
 6      1 +2.6141198e-09 5.83867000e+02 7.81860800e-03 9.93945400e-02
       -4 -1    0    0    0  501 -0.0000000000e+00 +0.0000000000e+00 +1.6231571988e+02 1.6232068820e+02 1.2700000000e+00 0.0000e+00 -1.0000e+00
        4 -1    0    0  501    0 +0.0000000000e+00 -0.0000000000e+00 -5.2504415988e+02 5.2504569585e+02 1.2700000000e+00 0.0000e+00 -1.0000e+00
      -13  1    1    2    0    0 -3.0967969590e+01 +6.7967077452e+01 -1.5732267793e+02 1.7415216023e+02 1.0566000000e-01 0.0000e+00 1.0000e+00
       13  1    1    2    0    0 +4.5684806217e+01 +4.6505184333e+01 -5.0011008206e+01 8.2164139348e+01 1.0566000000e-01 0.0000e+00 -1.0000e+00
    10002  1    1    2    0    0 -4.4717214877e+01 -2.0070816411e+02 -5.0474308381e+00 2.2871133117e+02 1.0000000000e+02 0.0000e+00 0.0000e+00
   -10002  1    1    2    0    0 +3.0000378250e+01 +8.6235902326e+01 -1.5034732303e+02 2.0233875330e+02 1.0000000000e+02 0.0000e+00 0.0000e+00
<mgrwt>
<rscale>  0 0.58386696E+03</rscale>
<asrwt>0</asrwt>
<pdfrwt beam="1">  1        4 0.13126185E+00 0.58386696E+03</pdfrwt>
<pdfrwt beam="2">  1       -4 0.40579744E-01 0.58386696E+03</pdfrwt>
<totfact> 0.49106083E+00</totfact>
</mgrwt>
</event>
<event>
 6      1 +2.6141198e-09 3.79044900e+02 7.81860800e-03 1.05128700e-01
       -4 -1    0    0    0  501 -0.0000000000e+00 +0.0000000000e+00 +6.9953682866e+02 6.9953798150e+02 1.2700000000e+00 0.0000e+00 -1.0000e+00
        4 -1    0    0  501    0 +0.0000000000e+00 -0.0000000000e+00 -5.1337444722e+01 5.1353151126e+01 1.2700000000e+00 0.0000e+00 -1.0000e+00
      -13  1    1    2    0    0 +4.3164195045e+01 +7.0971729452e-01 +2.7704521658e+01 5.1295254331e+01 1.0566000000e-01 0.0000e+00 -1.0000e+00
       13  1    1    2    0    0 -3.2924768049e+01 +1.5252058191e+01 +1.4682688207e+02 1.5124420681e+02 1.0566000000e-01 0.0000e+00 1.0000e+00
    10002  1    1    2    0    0 -1.7105405429e+01 -9.2018082603e+01 +1.6137753588e+02 2.1166632115e+02 1.0000000000e+02 0.0000e+00 0.0000e+00
   -10002  1    1    2    0    0 +6.8659784331e+00 +7.6056307117e+01 +3.1229044433e+02 3.3668535033e+02 1.0000000000e+02 0.0000e+00 0.0000e+00
<mgrwt>
<rscale>  0 0.37904492E+03</rscale>
<asrwt>0</asrwt>
<pdfrwt beam="1">  1        4 0.12836469E-01 0.37904492E+03</pdfrwt>
<pdfrwt beam="2">  1       -4 0.17488631E+00 0.37904492E+03</pdfrwt>
<totfact> 0.19482998E+01</totfact>
</mgrwt>
</event>
<event>
 6      1 +2.6141198e-09 4.83982500e+02 7.81860800e-03 1.01804600e-01
        4 -1    0    0  501    0 +0.0000000000e+00 +0.0000000000e+00 +6.3688177802e+01 6.3700839019e+01 1.2700000000e+00 0.0000e+00 -1.0000e+00
       -4 -1    0    0    0  501 -0.0000000000e+00 -0.0000000000e+00 -9.1937189681e+02 9.1937277398e+02 1.2700000000e+00 0.0000e+00 -1.0000e+00
      -13  1    1    2    0    0 -3.0250026559e+01 -4.6176632735e+01 -1.7378798683e+02 1.8234478618e+02 1.0566000000e-01 0.0000e+00 1.0000e+00
       13  1    1    2    0    0 +4.7728684945e+00 +3.2319876215e+01 -1.2153394599e+02 1.2584858308e+02 1.0566000000e-01 0.0000e+00 -1.0000e+00
    10002  1    1    2    0    0 -3.8767015763e+01 +1.4725699340e+02 -3.7784000272e+02 4.1946462458e+02 1.0000000000e+02 0.0000e+00 0.0000e+00
   -10002  1    1    2    0    0 +6.4244173827e+01 -1.3340023688e+02 -1.8252178347e+02 2.5541561916e+02 1.0000000000e+02 0.0000e+00 0.0000e+00
<mgrwt>
<rscale>  0 0.48398254E+03</rscale>
<asrwt>0</asrwt>
<pdfrwt beam="1">  1        4 0.15923740E-01 0.48398254E+03</pdfrwt>
<pdfrwt beam="2">  1       -4 0.22984462E+00 0.48398254E+03</pdfrwt>
<totfact> 0.59249258E+00</totfact>
</mgrwt>
</event>
<event>
 6      1 +2.6141198e-09 4.58892700e+02 7.81860800e-03 1.02510300e-01
        4 -1    0    0  501    0 +0.0000000000e+00 +0.0000000000e+00 +3.7615666373e+02 3.7615880765e+02 1.2700000000e+00 0.0000e+00 1.0000e+00
       -4 -1    0    0    0  501 -0.0000000000e+00 -0.0000000000e+00 -1.3995122844e+02 1.3995699069e+02 1.2700000000e+00 0.0000e+00 1.0000e+00
      -13  1    1    2    0    0 -2.3869014144e+01 -7.3060194102e+01 -4.6192973989e+01 8.9673428664e+01 1.0566000000e-01 0.0000e+00 1.0000e+00
       13  1    1    2    0    0 -9.6352591901e+00 +8.2228383624e+00 +3.5717124078e+01 3.7896931365e+01 1.0566000000e-01 0.0000e+00 -1.0000e+00
    10002  1    1    2    0    0 +1.0171636321e+02 +3.3678531873e+01 +4.8763096129e+01 1.5446132719e+02 1.0000000000e+02 0.0000e+00 0.0000e+00
   -10002  1    1    2    0    0 -6.8212089876e+01 +3.1158823867e+01 +1.9791818907e+02 2.3408411111e+02 1.0000000000e+02 0.0000e+00 0.0000e+00
<mgrwt>
<rscale>  0 0.45889270E+03</rscale>
<asrwt>0</asrwt>
<pdfrwt beam="1">  1        4 0.94040154E-01 0.45889270E+03</pdfrwt>
<pdfrwt beam="2">  1       -4 0.34988795E-01 0.45889270E+03</pdfrwt>
<totfact> 0.14736733E+01</totfact>
</mgrwt>
</event>
<event>
 6      1 +2.6141198e-09 4.93989400e+02 7.81860800e-03 1.01536000e-01
        4 -1    0    0  501    0 +0.0000000000e+00 +0.0000000000e+00 +2.7514228364e+02 2.7514521466e+02 1.2700000000e+00 0.0000e+00 -1.0000e+00
       -4 -1    0    0    0  501 -0.0000000000e+00 -0.0000000000e+00 -2.2172077314e+02 2.2172441034e+02 1.2700000000e+00 0.0000e+00 -1.0000e+00
      -13  1    1    2    0    0 -8.7727266596e+00 +2.8294974836e+01 +6.0331866123e+00 3.0232049860e+01 1.0566000000e-01 0.0000e+00 1.0000e+00
       13  1    1    2    0    0 -1.5082826326e+00 -5.2345345057e+01 -3.6491885517e+01 6.3827728600e+01 1.0566000000e-01 0.0000e+00 -1.0000e+00
    10002  1    1    2    0    0 +5.1750609154e+01 -1.5058202776e+02 +5.0113565454e+01 1.9458787752e+02 1.0000000000e+02 0.0000e+00 0.0000e+00
   -10002  1    1    2    0    0 -4.1469599862e+01 +1.7463239798e+02 +3.3766643957e+01 2.0822196902e+02 1.0000000000e+02 0.0000e+00 0.0000e+00
<mgrwt>
<rscale>  0 0.49398944E+03</rscale>
<asrwt>0</asrwt>
<pdfrwt beam="1">  1        4 0.68786392E-01 0.49398944E+03</pdfrwt>
<pdfrwt beam="2">  1       -4 0.55431015E-01 0.49398944E+03</pdfrwt>
<totfact> 0.11746830E+01</totfact>
</mgrwt>
</event>
<event>
 6      1 +2.6141198e-09 5.00431700e+02 7.81860800e-03 1.01366600e-01
       -4 -1    0    0    0  501 -0.0000000000e+00 +0.0000000000e+00 +9.2717080342e+01 9.2725777900e+01 1.2700000000e+00 0.0000e+00 -1.0000e+00
        4 -1    0    0  501    0 +0.0000000000e+00 -0.0000000000e+00 -6.7521727594e+02 6.7521847029e+02 1.2700000000e+00 0.0000e+00 -1.0000e+00
      -13  1    1    2    0    0 +7.2077871711e+01 -5.9174099589e+00 -2.7594649436e+02 2.8526604117e+02 1.0566000000e-01 0.0000e+00 -1.0000e+00
       13  1    1    2    0    0 +8.0708871498e+00 +3.7836836495e+01 -3.1526036671e+01 4.9906588419e+01 1.0566000000e-01 0.0000e+00 1.0000e+00
    10002  1    1    2    0    0 -1.4245895322e+02 -4.9375071208e+01 -6.6752373079e+01 1.9284276062e+02 1.0000000000e+02 0.0000e+00 0.0000e+00
   -10002  1    1    2    0    0 +6.2310194364e+01 +1.7455644672e+01 -2.0827529149e+02 2.3992885799e+02 1.0000000000e+02 0.0000e+00 0.0000e+00
<mgrwt>
<rscale>  0 0.50043170E+03</rscale>
<asrwt>0</asrwt>
<pdfrwt beam="1">  1        4 0.16880554E+00 0.50043170E+03</pdfrwt>
<pdfrwt beam="2">  1       -4 0.23180509E-01 0.50043170E+03</pdfrwt>
<totfact> 0.74669005E+00</totfact>
</mgrwt>
</event>
<event>
 6      1 +2.6141198e-09 3.72542400e+02 7.81860800e-03 1.05372500e-01
        4 -1    0    0  501    0 +0.0000000000e+00 +0.0000000000e+00 +3.5423975049e+02 3.5424202704e+02 1.2700000000e+00 0.0000e+00 1.0000e+00
       -4 -1    0    0    0  501 -0.0000000000e+00 -0.0000000000e+00 -9.7940983368e+01 9.7949217062e+01 1.2700000000e+00 0.0000e+00 1.0000e+00
      -13  1    1    2    0    0 -4.2590892998e+01 +1.4648314512e+01 +2.9869400908e+01 5.4043959506e+01 1.0566000000e-01 0.0000e+00 -1.0000e+00
       13  1    1    2    0    0 +4.8638171406e+01 +5.3801549203e+01 +9.7956628643e+01 1.2188433317e+02 1.0566000000e-01 0.0000e+00 1.0000e+00
    10002  1    1    2    0    0 +2.1279480426e+01 -3.8216359255e+01 +9.3759275857e-01 1.0915212083e+02 1.0000000000e+02 0.0000e+00 0.0000e+00
   -10002  1    1    2    0    0 -2.7326758834e+01 -3.0233504461e+01 +1.2753514481e+02 1.6711083059e+02 1.0000000000e+02 0.0000e+00 0.0000e+00
<mgrwt>
<rscale>  0 0.37254243E+03</rscale>
<asrwt>0</asrwt>
<pdfrwt beam="1">  1        4 0.88561250E-01 0.37254243E+03</pdfrwt>
<pdfrwt beam="2">  1       -4 0.24486560E-01 0.37254243E+03</pdfrwt>
<totfact> 0.33173162E+01</totfact>
</mgrwt>
</event>
<event>
 6      1 +2.6141198e-09 6.28038700e+02 7.81860800e-03 9.84888400e-02
        4 -1    0    0  501    0 +0.0000000000e+00 +0.0000000000e+00 +2.0771882135e+02 2.0772270373e+02 1.2700000000e+00 0.0000e+00 1.0000e+00
       -4 -1    0    0    0  501 -0.0000000000e+00 -0.0000000000e+00 -4.7471015727e+02 4.7471185609e+02 1.2700000000e+00 0.0000e+00 1.0000e+00
      -13  1    1    2    0    0 -1.4250580730e+01 +4.6845123211e+01 +3.2113714224e+01 5.8556352560e+01 1.0566000000e-01 0.0000e+00 -1.0000e+00
       13  1    1    2    0    0 +3.2545156385e+01 +2.9692719945e+01 -4.6942880010e+01 6.4377713299e+01 1.0566000000e-01 0.0000e+00 1.0000e+00
    10002  1    1    2    0    0 +1.2383975710e+02 +1.1349394628e+01 +7.6890941619e+01 1.7713641946e+02 1.0000000000e+02 0.0000e+00 0.0000e+00
   -10002  1    1    2    0    0 -1.4213433276e+02 -8.7887237785e+01 -3.2905311175e+02 3.8236407450e+02 1.0000000000e+02 0.0000e+00 0.0000e+00
<mgrwt>
<rscale>  0 0.62803866E+03</rscale>
<asrwt>0</asrwt>
<pdfrwt beam="1">  1        4 0.51930404E-01 0.62803866E+03</pdfrwt>
<pdfrwt beam="2">  1       -4 0.11867824E+00 0.62803866E+03</pdfrwt>
<totfact> 0.38097710E+00</totfact>
</mgrwt>
</event>
<event>
 6      1 +2.6141198e-09 4.00921700e+02 7.81860800e-03 1.04346100e-01
        4 -1    0    0  501    0 +0.0000000000e+00 +0.0000000000e+00 +7.7890192595e+01 7.7900545585e+01 1.2700000000e+00 0.0000e+00 1.0000e+00
       -4 -1    0    0    0  501 -0.0000000000e+00 -0.0000000000e+00 -5.1586749645e+02 5.1586905974e+02 1.2700000000e+00 0.0000e+00 1.0000e+00
      -13  1    1    2    0    0 +2.5298717476e+01 -9.6340279001e-01 +3.1820519530e+00 2.5516462716e+01 1.0566000000e-01 0.0000e+00 -1.0000e+00
       13  1    1    2    0    0 -2.6885733892e+01 +5.0366053780e+01 -8.6423256695e+01 1.0357882275e+02 1.0566000000e-01 0.0000e+00 1.0000e+00
    10002  1    1    2    0    0 -3.0816715889e+01 +3.1010751023e+00 -1.5704365339e+01 1.0585798853e+02 1.0000000000e+02 0.0000e+00 0.0000e+00
   -10002  1    1    2    0    0 +3.2403732305e+01 -5.2503726092e+01 -3.3903173378e+02 3.5881633133e+02 1.0000000000e+02 0.0000e+00 0.0000e+00
<mgrwt>
<rscale>  0 0.40092172E+03</rscale>
<asrwt>0</asrwt>
<pdfrwt beam="1">  1        4 0.19474039E-01 0.40092172E+03</pdfrwt>
<pdfrwt beam="2">  1       -4 0.12896835E+00 0.40092172E+03</pdfrwt>
<totfact> 0.20669894E+01</totfact>
</mgrwt>
</event>
<event>
 6      1 +2.6141198e-09 5.40841600e+02 7.81860800e-03 1.00363600e-01
       -4 -1    0    0    0  501 -0.0000000000e+00 +0.0000000000e+00 +6.3565435447e+02 6.3565562316e+02 1.2700000000e+00 0.0000e+00 -1.0000e+00
        4 -1    0    0  501    0 +0.0000000000e+00 -0.0000000000e+00 -1.1503781832e+02 1.1504482841e+02 1.2700000000e+00 0.0000e+00 -1.0000e+00
      -13  1    1    2    0    0 -2.0976427255e+01 +1.1356792320e+02 +1.7602919358e+01 1.1682276154e+02 1.0566000000e-01 0.0000e+00 -1.0000e+00
       13  1    1    2    0    0 +1.8331538449e+01 +2.8184820740e+01 +6.4780247492e+01 7.2985759235e+01 1.0566000000e-01 0.0000e+00 1.0000e+00
    10002  1    1    2    0    0 -1.6135630051e+01 +4.2876697805e+01 +2.6879262064e+02 2.9042768924e+02 1.0000000000e+02 0.0000e+00 0.0000e+00
   -10002  1    1    2    0    0 +1.8780518857e+01 -1.8462944174e+02 +1.6944074867e+02 2.7046424155e+02 1.0000000000e+02 0.0000e+00 0.0000e+00
<mgrwt>
<rscale>  0 0.54084156E+03</rscale>
<asrwt>0</asrwt>
<pdfrwt beam="1">  1        4 0.28760490E-01 0.54084156E+03</pdfrwt>
<pdfrwt beam="2">  1       -4 0.15891462E+00 0.54084156E+03</pdfrwt>
<totfact> 0.58596670E+00</totfact>
</mgrwt>
</event>
<event>
 6      1 +2.6141198e-09 4.50980500e+02 7.81860800e-03 1.02743000e-01
       -4 -1    0    0    0  501 -0.0000000000e+00 +0.0000000000e+00 +1.4475570380e+02 1.4476127481e+02 1.2700000000e+00 0.0000e+00 1.0000e+00
        4 -1    0    0  501    0 +0.0000000000e+00 -0.0000000000e+00 -3.5123942032e+02 3.5124171633e+02 1.2700000000e+00 0.0000e+00 1.0000e+00
      -13  1    1    2    0    0 -3.8869392282e+01 +5.0990018095e+01 -2.9403338453e+01 7.0536367059e+01 1.0566000000e-01 0.0000e+00 -1.0000e+00
       13  1    1    2    0    0 -1.0482217170e+01 -3.4476860347e+01 -4.9386756026e+00 3.6372138471e+01 1.0566000000e-01 0.0000e+00 1.0000e+00
    10002  1    1    2    0    0 +1.4607248100e+02 +3.7272898397e+01 -3.0610430642e+01 1.8347598514e+02 1.0000000000e+02 0.0000e+00 0.0000e+00
   -10002  1    1    2    0    0 -9.6720871546e+01 -5.3786056144e+01 -1.4153127182e+02 2.0561850046e+02 1.0000000000e+02 0.0000e+00 0.0000e+00
<mgrwt>
<rscale>  0 0.45098053E+03</rscale>
<asrwt>0</asrwt>
<pdfrwt beam="1">  1        4 0.87810837E-01 0.45098053E+03</pdfrwt>
<pdfrwt beam="2">  1       -4 0.36189910E-01 0.45098053E+03</pdfrwt>
<totfact> 0.16146895E+01</totfact>
</mgrwt>
</event>
<event>
 6      1 +2.6141198e-09 5.00332300e+02 7.81860800e-03 1.01369200e-01
       -4 -1    0    0    0  501 -0.0000000000e+00 +0.0000000000e+00 +1.5003214737e+02 1.5003752245e+02 1.2700000000e+00 0.0000e+00 1.0000e+00
        4 -1    0    0  501    0 +0.0000000000e+00 -0.0000000000e+00 -4.1711754825e+02 4.1711948163e+02 1.2700000000e+00 0.0000e+00 1.0000e+00
      -13  1    1    2    0    0 +2.2462402907e+01 -3.6955382232e+01 -3.7028311248e+01 5.6933002891e+01 1.0566000000e-01 0.0000e+00 1.0000e+00
       13  1    1    2    0    0 +3.2535220348e+01 +5.9135599126e+01 -1.3445551607e+02 1.5044552706e+02 1.0566000000e-01 0.0000e+00 -1.0000e+00
    10002  1    1    2    0    0 +6.8067284869e+01 +2.8842882837e+01 +5.4287253270e+01 1.3569146262e+02 1.0000000000e+02 0.0000e+00 0.0000e+00
   -10002  1    1    2    0    0 -1.2306490812e+02 -5.1023099731e+01 -1.4988882684e+02 2.2408701151e+02 1.0000000000e+02 0.0000e+00 0.0000e+00
<mgrwt>
<rscale>  0 0.50033235E+03</rscale>
<asrwt>0</asrwt>
<pdfrwt beam="1">  1        4 0.10428030E+00 0.50033235E+03</pdfrwt>
<pdfrwt beam="2">  1       -4 0.37508951E-01 0.50033235E+03</pdfrwt>
<totfact> 0.10092696E+01</totfact>
</mgrwt>
</event>
<event>
 6      1 +2.6141198e-09 8.65621900e+02 7.81860800e-03 9.46960600e-02
       -4 -1    0    0    0  501 -0.0000000000e+00 +0.0000000000e+00 +6.2830089967e+02 6.2830218321e+02 1.2700000000e+00 0.0000e+00 -1.0000e+00
        4 -1    0    0  501    0 +0.0000000000e+00 -0.0000000000e+00 -2.9814296211e+02 2.9814566701e+02 1.2700000000e+00 0.0000e+00 -1.0000e+00
      -13  1    1    2    0    0 +1.5354025789e+01 +8.3350515242e+00 -6.0108232421e+01 6.2595766316e+01 1.0566000000e-01 0.0000e+00 -1.0000e+00
       13  1    1    2    0    0 -1.0383360165e+02 +2.2934490445e+01 -7.8175910361e+01 1.3198064937e+02 1.0566000000e-01 0.0000e+00 1.0000e+00
    10002  1    1    2    0    0 +3.4685068961e+00 +8.5042115312e+01 +5.2998746206e+02 5.4601364622e+02 1.0000000000e+02 0.0000e+00 0.0000e+00
   -10002  1    1    2    0    0 +8.5011068963e+01 -1.1631165728e+02 -6.1545381713e+01 1.8585778831e+02 1.0000000000e+02 0.0000e+00 0.0000e+00
<mgrwt>
<rscale>  0 0.86562195E+03</rscale>
<asrwt>0</asrwt>
<pdfrwt beam="1">  1        4 0.74536239E-01 0.86562195E+03</pdfrwt>
<pdfrwt beam="2">  1       -4 0.15707572E+00 0.86562195E+03</pdfrwt>
<totfact> 0.83869754E-01</totfact>
</mgrwt>
</event>
<event>
 6      1 +2.6141198e-09 3.03331600e+02 7.81860800e-03 1.08358700e-01
       -4 -1    0    0    0  501 -0.0000000000e+00 +0.0000000000e+00 +3.2212449111e+02 3.2212699463e+02 1.2700000000e+00 0.0000e+00 1.0000e+00
        4 -1    0    0  501    0 +0.0000000000e+00 -0.0000000000e+00 -7.1400346911e+01 7.1411640781e+01 1.2700000000e+00 0.0000e+00 1.0000e+00
      -13  1    1    2    0    0 +1.9130191659e+01 +4.8977412436e+00 -5.7258361704e+00 2.0560847893e+01 1.0566000000e-01 0.0000e+00 -1.0000e+00
       13  1    1    2    0    0 +3.7659071446e-01 -1.2551039073e+01 +4.5434822758e+01 4.7138144697e+01 1.0566000000e-01 0.0000e+00 1.0000e+00
    10002  1    1    2    0    0 -5.3270040618e-01 +2.8950573324e+01 +1.9441466174e+02 2.2053453282e+02 1.0000000000e+02 0.0000e+00 0.0000e+00
   -10002  1    1    2    0    0 -1.8974081968e+01 -2.1297275494e+01 +1.6600495866e+01 1.0530511000e+02 1.0000000000e+02 0.0000e+00 0.0000e+00
<mgrwt>
<rscale>  0 0.30333160E+03</rscale>
<asrwt>0</asrwt>
<pdfrwt beam="1">  1        4 0.17851811E-01 0.30333160E+03</pdfrwt>
<pdfrwt beam="2">  1       -4 0.80532847E-01 0.30333160E+03</pdfrwt>
<totfact> 0.72265006E+01</totfact>
</mgrwt>
</event>
<event>
 6      1 +2.6141198e-09 2.89531900e+02 7.81860800e-03 1.09059400e-01
       -4 -1    0    0    0  501 -0.0000000000e+00 +0.0000000000e+00 +5.6912955184e+02 5.6913096883e+02 1.2700000000e+00 0.0000e+00 1.0000e+00
        4 -1    0    0  501    0 +0.0000000000e+00 -0.0000000000e+00 -3.6810791774e+01 3.6832693236e+01 1.2700000000e+00 0.0000e+00 1.0000e+00
      -13  1    1    2    0    0 -6.9377887028e-01 +3.4030276975e+01 +1.7674657168e+01 3.8352910583e+01 1.0566000000e-01 0.0000e+00 -1.0000e+00
       13  1    1    2    0    0 +4.8545771288e+00 -2.9074318542e+01 +9.0988028329e+01 9.5643689708e+01 1.0566000000e-01 0.0000e+00 1.0000e+00
    10002  1    1    2    0    0 +6.4086802620e-01 +1.5208126949e+01 +2.6091315468e+02 2.7983454419e+02 1.0000000000e+02 0.0000e+00 0.0000e+00
   -10002  1    1    2    0    0 -4.8016662847e+00 -2.0164085382e+01 +1.6274291990e+02 1.9213251759e+02 1.0000000000e+02 0.0000e+00 0.0000e+00
<mgrwt>
<rscale>  0 0.28953186E+03</rscale>
<asrwt>0</asrwt>
<pdfrwt beam="1">  1        4 0.92056129E-02 0.28953186E+03</pdfrwt>
<pdfrwt beam="2">  1       -4 0.14228530E+00 0.28953186E+03</pdfrwt>
<totfact> 0.58653228E+01</totfact>
</mgrwt>
</event>
<event>
 6      1 +2.6141198e-09 8.32228100e+02 7.81860800e-03 9.51450500e-02
        4 -1    0    0  501    0 +0.0000000000e+00 +0.0000000000e+00 +2.6593387283e+02 2.6593690533e+02 1.2700000000e+00 0.0000e+00 -1.0000e+00
       -4 -1    0    0    0  501 -0.0000000000e+00 -0.0000000000e+00 -6.5109767312e+02 6.5109891172e+02 1.2700000000e+00 0.0000e+00 -1.0000e+00
      -13  1    1    2    0    0 +4.4850957129e+01 +7.3855082066e+00 -8.5497013166e+00 4.6252163663e+01 1.0566000000e-01 0.0000e+00 -1.0000e+00
       13  1    1    2    0    0 -1.9721695158e+01 +8.9024365216e+01 -1.4764914641e+01 9.2370432122e+01 1.0566000000e-01 0.0000e+00 1.0000e+00
    10002  1    1    2    0    0 +2.0462652189e+01 -3.8783274306e+01 +1.8654572531e+02 2.1615311733e+02 1.0000000000e+02 0.0000e+00 0.0000e+00
   -10002  1    1    2    0    0 -4.5591914161e+01 -5.7626599116e+01 -5.4839490964e+02 5.6226010394e+02 1.0000000000e+02 0.0000e+00 0.0000e+00
<mgrwt>
<rscale>  0 0.83222806E+03</rscale>
<asrwt>0</asrwt>
<pdfrwt beam="1">  1        4 0.66484003E-01 0.83222806E+03</pdfrwt>
<pdfrwt beam="2">  1       -4 0.16277495E+00 0.83222806E+03</pdfrwt>
<totfact> 0.98241017E-01</totfact>
</mgrwt>
</event>
<event>
 6      1 +2.6141198e-09 3.65952000e+02 7.81860800e-03 1.05625200e-01
        4 -1    0    0  501    0 +0.0000000000e+00 +0.0000000000e+00 +6.4490516342e+02 6.4490641391e+02 1.2700000000e+00 0.0000e+00 -1.0000e+00
       -4 -1    0    0    0  501 -0.0000000000e+00 -0.0000000000e+00 -5.1905891659e+01 5.1921426106e+01 1.2700000000e+00 0.0000e+00 -1.0000e+00
      -13  1    1    2    0    0 +3.3065088581e+01 -2.4271529435e+01 +1.3738944659e+02 1.4338158328e+02 1.0566000000e-01 0.0000e+00 1.0000e+00
       13  1    1    2    0    0 +1.1577864072e+01 +6.1018823078e+01 +9.2066624047e+01 1.1105682390e+02 1.0566000000e-01 0.0000e+00 -1.0000e+00
    10002  1    1    2    0    0 +2.3633813202e+01 +3.7110757025e+01 +1.3888644701e+02 1.7670656631e+02 1.0000000000e+02 0.0000e+00 0.0000e+00
   -10002  1    1    2    0    0 -6.8276765856e+01 -7.3858050668e+01 +2.2465675411e+02 2.6568286653e+02 1.0000000000e+02 0.0000e+00 0.0000e+00
<mgrwt>
<rscale>  0 0.36595205E+03</rscale>
<asrwt>0</asrwt>
<pdfrwt beam="1">  1        4 0.16122839E+00 0.36595205E+03</pdfrwt>
<pdfrwt beam="2">  1       -4 0.12978571E-01 0.36595205E+03</pdfrwt>
<totfact> 0.23810630E+01</totfact>
</mgrwt>
</event>
<event>
 6      1 +2.6141198e-09 3.60882500e+02 7.81860800e-03 1.05823500e-01
        4 -1    0    0  501    0 +0.0000000000e+00 +0.0000000000e+00 +1.2357017990e+02 1.2357670598e+02 1.2700000000e+00 0.0000e+00 -1.0000e+00
       -4 -1    0    0    0  501 -0.0000000000e+00 -0.0000000000e+00 -2.6347126903e+02 2.6347432988e+02 1.2700000000e+00 0.0000e+00 -1.0000e+00
      -13  1    1    2    0    0 -2.1708121008e+01 +2.8393813943e+00 +1.6007394627e+01 2.7121070244e+01 1.0566000000e-01 0.0000e+00 -1.0000e+00
       13  1    1    2    0    0 +3.0165736067e+01 -9.7177151972e+00 -9.6289940202e+01 1.0137144257e+02 1.0566000000e-01 0.0000e+00 1.0000e+00
    10002  1    1    2    0    0 -7.9734711481e+01 -6.4664849804e+00 -2.9485603315e+01 1.3141096014e+02 1.0000000000e+02 0.0000e+00 0.0000e+00
   -10002  1    1    2    0    0 +7.1277096422e+01 +1.3344818783e+01 -3.0132940237e+01 1.2714756289e+02 1.0000000000e+02 0.0000e+00 0.0000e+00
<mgrwt>
<rscale>  0 0.36088251E+03</rscale>
<asrwt>0</asrwt>
<pdfrwt beam="1">  1        4 0.30893744E-01 0.36088251E+03</pdfrwt>
<pdfrwt beam="2">  1       -4 0.65869015E-01 0.36088251E+03</pdfrwt>
<totfact> 0.41214755E+01</totfact>
</mgrwt>
</event>
<event>
 6      1 +2.6141198e-09 5.39492300e+02 7.81860800e-03 1.00395600e-01
       -4 -1    0    0    0  501 -0.0000000000e+00 +0.0000000000e+00 +9.1961259696e+01 9.1970028731e+01 1.2700000000e+00 0.0000e+00 1.0000e+00
        4 -1    0    0  501    0 +0.0000000000e+00 -0.0000000000e+00 -7.9118832102e+02 7.9118934031e+02 1.2700000000e+00 0.0000e+00 1.0000e+00
      -13  1    1    2    0    0 -3.1096255412e+01 -4.6667287697e+01 -8.3067336975e+01 1.0022477976e+02 1.0566000000e-01 0.0000e+00 1.0000e+00
       13  1    1    2    0    0 +1.8163881105e+01 +2.9294179387e+01 -1.2047762279e+02 1.2531138927e+02 1.0566000000e-01 0.0000e+00 -1.0000e+00
    10002  1    1    2    0    0 +1.6729781408e+02 -8.9674369245e+01 -2.9774938932e+02 3.6699420968e+02 1.0000000000e+02 0.0000e+00 0.0000e+00
   -10002  1    1    2    0    0 -1.5436543978e+02 +1.0704747755e+02 -1.9793271223e+02 2.9062899033e+02 1.0000000000e+02 0.0000e+00 0.0000e+00
<mgrwt>
<rscale>  0 0.53949234E+03</rscale>
<asrwt>0</asrwt>
<pdfrwt beam="1">  1        4 0.19779828E+00 0.53949234E+03</pdfrwt>
<pdfrwt beam="2">  1       -4 0.22991541E-01 0.53949234E+03</pdfrwt>
<totfact> 0.48265101E+00</totfact>
</mgrwt>
</event>
<event>
 6      1 +2.6141198e-09 7.70162000e+02 7.81860800e-03 9.60424000e-02
        4 -1    0    0  501    0 +0.0000000000e+00 +0.0000000000e+00 +2.6541568129e+02 2.6541871971e+02 1.2700000000e+00 0.0000e+00 1.0000e+00
       -4 -1    0    0    0  501 -0.0000000000e+00 -0.0000000000e+00 -5.5869171153e+02 5.5869315499e+02 1.2700000000e+00 0.0000e+00 1.0000e+00
      -13  1    1    2    0    0 -8.5316365067e+00 +5.8256791152e+00 -1.7458935533e+01 2.0286767919e+01 1.0566000000e-01 0.0000e+00 1.0000e+00
       13  1    1    2    0    0 -7.5137924074e+01 -3.2085009057e+01 +1.3877227227e+02 1.6103698381e+02 1.0566000000e-01 0.0000e+00 -1.0000e+00
    10002  1    1    2    0    0 -1.1246501698e+02 +1.7096036314e+02 -1.9230028961e+02 2.9808593928e+02 1.0000000000e+02 0.0000e+00 0.0000e+00
   -10002  1    1    2    0    0 +1.9613457756e+02 -1.4470103320e+02 -2.2228907737e+02 3.4470218369e+02 1.0000000000e+02 0.0000e+00 0.0000e+00
<mgrwt>
<rscale>  0 0.77016203E+03</rscale>
<asrwt>0</asrwt>
<pdfrwt beam="1">  1        4 0.66354482E-01 0.77016203E+03</pdfrwt>
<pdfrwt beam="2">  1       -4 0.13967349E+00 0.77016203E+03</pdfrwt>
<totfact> 0.14874560E+00</totfact>
</mgrwt>
</event>
<event>
 6      1 +2.6141198e-09 7.34926900e+02 7.81860800e-03 9.65929900e-02
       -4 -1    0    0    0  501 -0.0000000000e+00 +0.0000000000e+00 +3.7119395025e+02 3.7119612282e+02 1.2700000000e+00 0.0000e+00 1.0000e+00
        4 -1    0    0  501    0 +0.0000000000e+00 -0.0000000000e+00 -3.6376609283e+02 3.6376830977e+02 1.2700000000e+00 0.0000e+00 1.0000e+00
      -13  1    1    2    0    0 +7.8171289708e+01 +4.2480057148e+01 +5.9010033251e+01 1.0675907914e+02 1.0566000000e-01 0.0000e+00 -1.0000e+00
       13  1    1    2    0    0 +2.6350721082e+01 -2.3112187503e+01 +1.2227609088e+02 1.2720057892e+02 1.0566000000e-01 0.0000e+00 1.0000e+00
    10002  1    1    2    0    0 -1.3368391303e+00 +1.3003319915e+02 +7.2235550809e+01 1.7924395337e+02 1.0000000000e+02 0.0000e+00 0.0000e+00
   -10002  1    1    2    0    0 -1.0318517166e+02 -1.4940106880e+02 -2.4609381752e+02 3.2176082116e+02 1.0000000000e+02 0.0000e+00 0.0000e+00
<mgrwt>
<rscale>  0 0.73492690E+03</rscale>
<asrwt>0</asrwt>
<pdfrwt beam="1">  1        4 0.90942072E-01 0.73492690E+03</pdfrwt>
<pdfrwt beam="2">  1       -4 0.92799036E-01 0.73492690E+03</pdfrwt>
<totfact> 0.19961140E+00</totfact>
</mgrwt>
</event>
<event>
 6      1 +2.6141198e-09 4.03213600e+02 7.81860800e-03 1.04267300e-01
       -4 -1    0    0    0  501 -0.0000000000e+00 +0.0000000000e+00 +3.9151596427e+02 3.9151802408e+02 1.2700000000e+00 0.0000e+00 1.0000e+00
        4 -1    0    0  501    0 +0.0000000000e+00 -0.0000000000e+00 -1.0380895617e+02 1.0381672448e+02 1.2700000000e+00 0.0000e+00 1.0000e+00
      -13  1    1    2    0    0 +3.7264011947e+01 -6.5353464186e+01 +1.8114461485e+01 7.7381049014e+01 1.0566000000e-01 0.0000e+00 -1.0000e+00
       13  1    1    2    0    0 -1.6696956191e+01 +2.6132144919e+01 -6.1797095504e-01 3.1017259650e+01 1.0566000000e-01 0.0000e+00 1.0000e+00
    10002  1    1    2    0    0 -8.8557296181e+01 -6.0137847608e+00 +1.9825482759e+02 2.3913079471e+02 1.0000000000e+02 0.0000e+00 0.0000e+00
   -10002  1    1    2    0    0 +6.7990240425e+01 +4.5235104028e+01 +7.1955689978e+01 1.4780564519e+02 1.0000000000e+02 0.0000e+00 0.0000e+00
<mgrwt>
<rscale>  0 0.40321358E+03</rscale>
<asrwt>0</asrwt>
<pdfrwt beam="1">  1        4 0.25953468E-01 0.40321358E+03</pdfrwt>
<pdfrwt beam="2">  1       -4 0.97880219E-01 0.40321358E+03</pdfrwt>
<totfact> 0.23697271E+01</totfact>
</mgrwt>
</event>
<event>
 6      1 +2.6141198e-09 4.34366400e+02 7.81860800e-03 1.03248900e-01
       -4 -1    0    0    0  501 -0.0000000000e+00 +0.0000000000e+00 +4.5001367415e+01 4.5019284415e+01 1.2700000000e+00 0.0000e+00 1.0000e+00
        4 -1    0    0  501    0 +0.0000000000e+00 -0.0000000000e+00 -1.0479312611e+03 1.0479320307e+03 1.2700000000e+00 0.0000e+00 1.0000e+00
      -13  1    1    2    0    0 -2.5787459329e+01 +1.7070507461e-02 -1.2488149816e+01 2.8652371628e+01 1.0566000000e-01 0.0000e+00 -1.0000e+00
       13  1    1    2    0    0 +5.2676762319e+01 +1.5518284537e+01 -1.6436256025e+02 1.7329374143e+02 1.0566000000e-01 0.0000e+00 1.0000e+00
    10002  1    1    2    0    0 -1.4367392848e+01 +9.4189506682e+01 -1.7418250205e+02 2.2230076286e+02 1.0000000000e+02 0.0000e+00 0.0000e+00
   -10002  1    1    2    0    0 -1.2521910143e+01 -1.0972486173e+02 -6.5189668157e+02 6.6870443916e+02 1.0000000000e+02 0.0000e+00 0.0000e+00
<mgrwt>
<rscale>  0 0.43436644E+03</rscale>
<asrwt>0</asrwt>
<pdfrwt beam="1">  1        4 0.26198507E+00 0.43436644E+03</pdfrwt>
<pdfrwt beam="2">  1       -4 0.11252681E-01 0.43436644E+03</pdfrwt>
<totfact> 0.69706546E+00</totfact>
</mgrwt>
</event>
<event>
 6      1 +2.6141198e-09 6.50241800e+02 7.81860800e-03 9.80632600e-02
       -4 -1    0    0    0  501 -0.0000000000e+00 +0.0000000000e+00 +1.8511120496e+02 1.8511556148e+02 1.2700000000e+00 0.0000e+00 1.0000e+00
        4 -1    0    0  501    0 +0.0000000000e+00 -0.0000000000e+00 -5.7101582556e+02 5.7101723786e+02 1.2700000000e+00 0.0000e+00 1.0000e+00
      -13  1    1    2    0    0 -5.5300190282e+01 -4.0118690644e+00 -1.3239027479e+02 1.4353188552e+02 1.0566000000e-01 0.0000e+00 1.0000e+00
       13  1    1    2    0    0 -2.7049765849e+01 -1.9871017137e+00 +1.5321965056e+01 3.1151439500e+01 1.0566000000e-01 0.0000e+00 -1.0000e+00
    10002  1    1    2    0    0 +2.1870349582e+02 +1.4183070973e+02 -7.1456256592e+01 2.8818946184e+02 1.0000000000e+02 0.0000e+00 0.0000e+00
   -10002  1    1    2    0    0 -1.3635353969e+02 -1.3583173895e+02 -1.9738005427e+02 2.9326001248e+02 1.0000000000e+02 0.0000e+00 0.0000e+00
<mgrwt>
<rscale>  0 0.65024183E+03</rscale>
<asrwt>0</asrwt>
<pdfrwt beam="1">  1        4 0.14275467E+00 0.65024183E+03</pdfrwt>
<pdfrwt beam="2">  1       -4 0.46278524E-01 0.65024183E+03</pdfrwt>
<totfact> 0.30288474E+00</totfact>
</mgrwt>
</event>
<event>
 6      1 +2.6141198e-09 7.67404700e+02 7.81860800e-03 9.60843400e-02
        4 -1    0    0  501    0 +0.0000000000e+00 +0.0000000000e+00 +2.9240546327e+02 2.9240822124e+02 1.2700000000e+00 0.0000e+00 -1.0000e+00
       -4 -1    0    0    0  501 -0.0000000000e+00 -0.0000000000e+00 -5.0349861177e+02 5.0350021346e+02 1.2700000000e+00 0.0000e+00 -1.0000e+00
      -13  1    1    2    0    0 +5.5329568146e+01 +2.2153074989e+01 +5.3676450513e+01 8.0207807265e+01 1.0566000000e-01 0.0000e+00 -1.0000e+00
       13  1    1    2    0    0 -1.3905984452e+01 -2.7906286800e+01 -1.1520292042e+01 3.3239517735e+01 1.0566000000e-01 0.0000e+00 1.0000e+00
    10002  1    1    2    0    0 +2.4785371067e+02 -1.4411713307e+01 -2.6344216234e+02 3.7555416690e+02 1.0000000000e+02 0.0000e+00 0.0000e+00
   -10002  1    1    2    0    0 -2.8927729436e+02 +2.0164925117e+01 +1.0192855369e+01 3.0690694280e+02 1.0000000000e+02 0.0000e+00 0.0000e+00
<mgrwt>
<rscale>  0 0.76740466E+03</rscale>
<asrwt>0</asrwt>
<pdfrwt beam="1">  1        4 0.73101911E-01 0.76740466E+03</pdfrwt>
<pdfrwt beam="2">  1       -4 0.12587520E+00 0.76740466E+03</pdfrwt>
<totfact> 0.15659592E+00</totfact>
</mgrwt>
</event>
<event>
 6      1 +2.6141198e-09 4.13933900e+02 7.81860800e-03 1.03905900e-01
        4 -1    0    0  501    0 +0.0000000000e+00 +0.0000000000e+00 +1.0919041711e+03 1.0919049097e+03 1.2700000000e+00 0.0000e+00 -1.0000e+00
       -4 -1    0    0    0  501 -0.0000000000e+00 -0.0000000000e+00 -3.9218885740e+01 3.9239443149e+01 1.2700000000e+00 0.0000e+00 -1.0000e+00
      -13  1    1    2    0    0 +6.2888453181e+01 +1.5270133755e+01 +3.7130847390e+02 3.7690599422e+02 1.0566000000e-01 0.0000e+00 -1.0000e+00
       13  1    1    2    0    0 -2.4057890770e+01 +9.5514902852e-01 +3.5095525313e+01 4.2560562485e+01 1.0566000000e-01 0.0000e+00 1.0000e+00
    10002  1    1    2    0    0 -7.8259763466e+01 -3.4576303150e+01 +5.5216326799e+02 5.6763050114e+02 1.0000000000e+02 0.0000e+00 0.0000e+00
   -10002  1    1    2    0    0 +3.9429201055e+01 +1.8351020366e+01 +9.4118018158e+01 1.4404729496e+02 1.0000000000e+02 0.0000e+00 0.0000e+00
<mgrwt>
<rscale>  0 0.41393386E+03</rscale>
<asrwt>0</asrwt>
<pdfrwt beam="1">  1        4 0.27297871E+00 0.41393386E+03</pdfrwt>
<pdfrwt beam="2">  1       -4 0.98073834E-02 0.41393386E+03</pdfrwt>
<totfact> 0.75890967E+00</totfact>
</mgrwt>
</event>
<event>
 6      1 +2.6141198e-09 3.36721900e+02 7.81860800e-03 1.06820100e-01
        4 -1    0    0  501    0 +0.0000000000e+00 +0.0000000000e+00 +1.0087424060e+02 1.0088223489e+02 1.2700000000e+00 0.0000e+00 -1.0000e+00
       -4 -1    0    0    0  501 -0.0000000000e+00 -0.0000000000e+00 -2.8097694820e+02 2.8097981835e+02 1.2700000000e+00 0.0000e+00 -1.0000e+00
      -13  1    1    2    0    0 -3.5218620823e+01 -2.3213950072e+01 +2.1238133526e+00 4.2234588642e+01 1.0566000000e-01 0.0000e+00 1.0000e+00
       13  1    1    2    0    0 +2.1494861745e+01 +1.9935697349e+01 -9.1798687511e+01 9.6366339056e+01 1.0566000000e-01 0.0000e+00 -1.0000e+00
    10002  1    1    2    0    0 +4.3387689988e+01 -2.3314887674e+01 -7.5389577164e+01 1.3457215156e+02 1.0000000000e+02 0.0000e+00 0.0000e+00
   -10002  1    1    2    0    0 -2.9663930910e+01 +2.6593140397e+01 -1.5038256284e+01 1.0868897398e+02 1.0000000000e+02 0.0000e+00 0.0000e+00
<mgrwt>
<rscale>  0 0.33672191E+03</rscale>
<asrwt>0</asrwt>
<pdfrwt beam="1">  1        4 0.25219919E-01 0.33672191E+03</pdfrwt>
<pdfrwt beam="2">  1       -4 0.70245594E-01 0.33672191E+03</pdfrwt>
<totfact> 0.52388504E+01</totfact>
</mgrwt>
</event>
<event>
 6      1 +2.6141198e-09 5.21819000e+02 7.81860800e-03 1.00823600e-01
       -4 -1    0    0    0  501 -0.0000000000e+00 +0.0000000000e+00 +1.4362900272e+02 1.4363461743e+02 1.2700000000e+00 0.0000e+00 1.0000e+00
        4 -1    0    0  501    0 +0.0000000000e+00 -0.0000000000e+00 -4.7393992140e+02 4.7394162299e+02 1.2700000000e+00 0.0000e+00 1.0000e+00
      -13  1    1    2    0    0 -3.5334746095e+01 +3.5417594046e+01 -1.5727474671e+01 5.2443444520e+01 1.0566000000e-01 0.0000e+00 1.0000e+00
       13  1    1    2    0    0 +6.7518961945e+00 -5.4327812647e+01 +5.2347342168e+00 5.4995571964e+01 1.0566000000e-01 0.0000e+00 -1.0000e+00
    10002  1    1    2    0    0 +6.3285084599e+01 +1.7300933223e+02 -1.5212942276e+02 2.5899921282e+02 1.0000000000e+02 0.0000e+00 0.0000e+00
   -10002  1    1    2    0    0 -3.4702234699e+01 -1.5409911363e+02 -1.6768875546e+02 2.5113801111e+02 1.0000000000e+02 0.0000e+00 0.0000e+00
<mgrwt>
<rscale>  0 0.52181904E+03</rscale>
<asrwt>0</asrwt>
<pdfrwt beam="1">  1        4 0.11848589E+00 0.52181904E+03</pdfrwt>
<pdfrwt beam="2">  1       -4 0.35908166E-01 0.52181904E+03</pdfrwt>
<totfact> 0.80834601E+00</totfact>
</mgrwt>
</event>
<event>
 6      1 +2.6141198e-09 4.64222200e+02 7.81860800e-03 1.02356400e-01
       -4 -1    0    0    0  501 -0.0000000000e+00 +0.0000000000e+00 +4.9161484239e+02 4.9161648280e+02 1.2700000000e+00 0.0000e+00 1.0000e+00
        4 -1    0    0  501    0 +0.0000000000e+00 -0.0000000000e+00 -1.0958346101e+02 1.0959081999e+02 1.2700000000e+00 0.0000e+00 1.0000e+00
      -13  1    1    2    0    0 +9.7011452276e-01 -1.6129479579e+01 +1.4379258553e+01 2.1630429359e+01 1.0566000000e-01 0.0000e+00 1.0000e+00
       13  1    1    2    0    0 -5.3060459751e+01 +1.2672044931e+02 +2.7968464524e+02 3.1160390981e+02 1.0566000000e-01 0.0000e+00 -1.0000e+00
    10002  1    1    2    0    0 -2.0496533966e+00 -9.2294304042e+00 +2.8143475959e+01 1.0431413473e+02 1.0000000000e+02 0.0000e+00 0.0000e+00
   -10002  1    1    2    0    0 +5.4139998625e+01 -1.0136153933e+02 +5.9824001632e+01 1.6365882890e+02 1.0000000000e+02 0.0000e+00 0.0000e+00
<mgrwt>
<rscale>  0 0.46422219E+03</rscale>
<asrwt>0</asrwt>
<pdfrwt beam="1">  1        4 0.27396990E-01 0.46422219E+03</pdfrwt>
<pdfrwt beam="2">  1       -4 0.12290483E+00 0.46422219E+03</pdfrwt>
<totfact> 0.12427220E+01</totfact>
</mgrwt>
</event>
<event>
 6      1 +2.6141198e-09 4.11616000e+02 7.81860800e-03 1.03983000e-01
       -4 -1    0    0    0  501 -0.0000000000e+00 +0.0000000000e+00 +2.0617862860e+02 2.0618253998e+02 1.2700000000e+00 0.0000e+00 -1.0000e+00
        4 -1    0    0  501    0 +0.0000000000e+00 -0.0000000000e+00 -2.0543022382e+02 2.0543414944e+02 1.2700000000e+00 0.0000e+00 -1.0000e+00
      -13  1    1    2    0    0 +2.8531017152e+01 -7.6086859608e+01 -2.5733348565e+01 8.5237582892e+01 1.0566000000e-01 0.0000e+00 -1.0000e+00
       13  1    1    2    0    0 -1.1102084722e+00 +1.8238171302e+01 -6.1070113133e-02 1.8272338353e+01 1.0566000000e-01 0.0000e+00 1.0000e+00
    10002  1    1    2    0    0 -9.0541961480e+00 +2.0422155168e+01 +1.2505606359e+02 1.6167270001e+02 1.0000000000e+02 0.0000e+00 0.0000e+00
   -10002  1    1    2    0    0 -1.8366612532e+01 +3.7426533138e+01 -9.8513240126e+01 1.4643406816e+02 1.0000000000e+02 0.0000e+00 0.0000e+00
<mgrwt>
<rscale>  0 0.41161601E+03</rscale>
<asrwt>0</asrwt>
<pdfrwt beam="1">  1        4 0.51358536E-01 0.41161601E+03</pdfrwt>
<pdfrwt beam="2">  1       -4 0.51545637E-01 0.41161601E+03</pdfrwt>
<totfact> 0.25331481E+01</totfact>
</mgrwt>
</event>
<event>
 6      1 +2.6141198e-09 6.61181500e+02 7.81860800e-03 9.78602100e-02
       -4 -1    0    0    0  501 -0.0000000000e+00 +0.0000000000e+00 +1.7493706420e+02 1.7494167409e+02 1.2700000000e+00 0.0000e+00 1.0000e+00
        4 -1    0    0  501    0 +0.0000000000e+00 -0.0000000000e+00 -6.2472693126e+02 6.2472822214e+02 1.2700000000e+00 0.0000e+00 1.0000e+00
      -13  1    1    2    0    0 +1.2052375278e+01 +3.6784095908e+01 -4.6546827230e+01 6.0538811938e+01 1.0566000000e-01 0.0000e+00 -1.0000e+00
       13  1    1    2    0    0 +4.3616045289e+01 -2.8351653136e+01 +3.6820799908e+01 6.3733492859e+01 1.0566000000e-01 0.0000e+00 1.0000e+00
    10002  1    1    2    0    0 +8.8300685838e-01 +6.9358965266e+01 +7.4340463420e+01 1.4261118563e+02 1.0000000000e+02 0.0000e+00 0.0000e+00
   -10002  1    1    2    0    0 -5.6551427425e+01 -7.7791408038e+01 -5.1440430316e+02 5.3278640581e+02 1.0000000000e+02 0.0000e+00 0.0000e+00
<mgrwt>
<rscale>  0 0.66118153E+03</rscale>
<asrwt>0</asrwt>
<pdfrwt beam="1">  1        4 0.15618246E+00 0.66118153E+03</pdfrwt>
<pdfrwt beam="2">  1       -4 0.43735005E-01 0.66118153E+03</pdfrwt>
<totfact> 0.26812186E+00</totfact>
</mgrwt>
</event>
<event>
 6      1 +2.6141198e-09 3.22053700e+02 7.81860800e-03 1.07470800e-01
        4 -1    0    0  501    0 +0.0000000000e+00 +0.0000000000e+00 +1.9393273767e+02 1.9393689602e+02 1.2700000000e+00 0.0000e+00 -1.0000e+00
       -4 -1    0    0    0  501 -0.0000000000e+00 -0.0000000000e+00 -1.3369570095e+02 1.3370173279e+02 1.2700000000e+00 0.0000e+00 -1.0000e+00
      -13  1    1    2    0    0 +3.0150054625e+01 -2.1138124154e+01 +8.9854125723e+00 3.7902439101e+01 1.0566000000e-01 0.0000e+00 1.0000e+00
       13  1    1    2    0    0 -2.9462267820e+01 +1.3315788734e+01 -2.7053104266e+01 4.2157052425e+01 1.0566000000e-01 0.0000e+00 -1.0000e+00
    10002  1    1    2    0    0 +1.6359094627e+01 +6.3011365908e+01 +3.6925741206e+01 1.2490621511e+02 1.0000000000e+02 0.0000e+00 0.0000e+00
   -10002  1    1    2    0    0 -1.7046881433e+01 -5.5189030488e+01 +4.1378987205e+01 1.2267292217e+02 1.0000000000e+02 0.0000e+00 0.0000e+00
<mgrwt>
<rscale>  0 0.32205368E+03</rscale>
<asrwt>0</asrwt>
<pdfrwt beam="1">  1        4 0.48484458E-01 0.32205368E+03</pdfrwt>
<pdfrwt beam="2">  1       -4 0.33425199E-01 0.32205368E+03</pdfrwt>
<totfact> 0.66944031E+01</totfact>
</mgrwt>
</event>
<event>
 6      1 +2.6141198e-09 3.74155400e+02 7.81860800e-03 1.05311500e-01
        4 -1    0    0  501    0 +0.0000000000e+00 +0.0000000000e+00 +6.1350819935e+01 6.1363963420e+01 1.2700000000e+00 0.0000e+00 1.0000e+00
       -4 -1    0    0    0  501 -0.0000000000e+00 -0.0000000000e+00 -5.7038300115e+02 5.7038441502e+02 1.2700000000e+00 0.0000e+00 1.0000e+00
      -13  1    1    2    0    0 -4.8687570818e+01 +7.9378187436e+00 -6.3539891296e+01 8.0441391513e+01 1.0566000000e-01 0.0000e+00 -1.0000e+00
       13  1    1    2    0    0 +4.7447388412e+01 -2.3211768212e+01 -9.3492619417e+01 1.0738213026e+02 1.0566000000e-01 0.0000e+00 1.0000e+00
    10002  1    1    2    0    0 +6.1227323195e+01 -1.6206269126e+01 -2.7830384130e+02 3.0243091169e+02 1.0000000000e+02 0.0000e+00 0.0000e+00
   -10002  1    1    2    0    0 -5.9987140788e+01 +3.1480218594e+01 -7.3695829204e+01 1.4149394498e+02 1.0000000000e+02 0.0000e+00 0.0000e+00
<mgrwt>
<rscale>  0 0.37415539E+03</rscale>
<asrwt>0</asrwt>
<pdfrwt beam="1">  1        4 0.15339526E-01 0.37415539E+03</pdfrwt>
<pdfrwt beam="2">  1       -4 0.14259755E+00 0.37415539E+03</pdfrwt>
<totfact> 0.24514528E+01</totfact>
</mgrwt>
</event>
<event>
 6      1 +2.6141198e-09 3.80243600e+02 7.81860800e-03 1.05084400e-01
        4 -1    0    0  501    0 +0.0000000000e+00 +0.0000000000e+00 +1.9661931874e+02 1.9662342028e+02 1.2700000000e+00 0.0000e+00 -1.0000e+00
       -4 -1    0    0    0  501 -0.0000000000e+00 -0.0000000000e+00 -1.8383080100e+02 1.8383518787e+02 1.2700000000e+00 0.0000e+00 -1.0000e+00
      -13  1    1    2    0    0 -5.2507887570e+01 -6.9092130752e+01 +2.4759742916e+01 9.0243320098e+01 1.0566000000e-01 0.0000e+00 -1.0000e+00
       13  1    1    2    0    0 +8.4053612027e+00 +2.6206983029e+01 +5.0137022557e-01 2.7526688732e+01 1.0566000000e-01 0.0000e+00 1.0000e+00
    10002  1    1    2    0    0 -2.3475894448e+01 +7.3541458624e+01 -4.4793081130e+01 1.3403687505e+02 1.0000000000e+02 0.0000e+00 0.0000e+00
   -10002  1    1    2    0    0 +6.7578420816e+01 -3.0656310900e+01 +3.2320485725e+01 1.2865172426e+02 1.0000000000e+02 0.0000e+00 0.0000e+00
<mgrwt>
<rscale>  0 0.38024361E+03</rscale>
<asrwt>0</asrwt>
<pdfrwt beam="1">  1        4 0.49155891E-01 0.38024361E+03</pdfrwt>
<pdfrwt beam="2">  1       -4 0.45958762E-01 0.38024361E+03</pdfrwt>
<totfact> 0.34966772E+01</totfact>
</mgrwt>
</event>
<event>
 6      1 +2.6141198e-09 4.54905700e+02 7.81860800e-03 1.02626900e-01
       -4 -1    0    0    0  501 -0.0000000000e+00 +0.0000000000e+00 +7.7674196301e+02 7.7674300126e+02 1.2700000000e+00 0.0000e+00 -1.0000e+00
        4 -1    0    0  501    0 +0.0000000000e+00 -0.0000000000e+00 -6.6597728319e+01 6.6609836490e+01 1.2700000000e+00 0.0000e+00 -1.0000e+00
      -13  1    1    2    0    0 +1.0173654424e+01 +9.9432532035e-01 -2.2861378018e+01 2.5042877153e+01 1.0566000000e-01 0.0000e+00 1.0000e+00
       13  1    1    2    0    0 +3.5582929722e+01 +3.0864790116e+01 +1.4138795148e+02 1.4902799786e+02 1.0566000000e-01 0.0000e+00 -1.0000e+00
    10002  1    1    2    0    0 +5.9867812012e+01 -9.5221960832e+01 +2.3639833598e+02 2.8024194903e+02 1.0000000000e+02 0.0000e+00 0.0000e+00
   -10002  1    1    2    0    0 -1.0562439616e+02 +6.3362845396e+01 +3.5521932524e+02 3.8904001371e+02 1.0000000000e+02 0.0000e+00 0.0000e+00
<mgrwt>
<rscale>  0 0.45490568E+03</rscale>
<asrwt>0</asrwt>
<pdfrwt beam="1">  1        4 0.16651076E-01 0.45490568E+03</pdfrwt>
<pdfrwt beam="2">  1       -4 0.19418713E+00 0.45490568E+03</pdfrwt>
<totfact> 0.91781524E+00</totfact>
</mgrwt>
</event>
<event>
 6      1 +2.6141198e-09 4.64259500e+02 7.81860800e-03 1.02355300e-01
        4 -1    0    0  501    0 +0.0000000000e+00 +0.0000000000e+00 +2.1538735323e+02 2.1539109738e+02 1.2700000000e+00 0.0000e+00 -1.0000e+00
       -4 -1    0    0    0  501 -0.0000000000e+00 -0.0000000000e+00 -2.5016601186e+02 2.5016923550e+02 1.2700000000e+00 0.0000e+00 -1.0000e+00
      -13  1    1    2    0    0 -3.4573593198e+00 +5.5188980128e+01 +1.9209479691e+01 5.8538808795e+01 1.0566000000e-01 0.0000e+00 1.0000e+00
       13  1    1    2    0    0 +1.8167969724e+01 -3.6183805930e+01 +1.8250012589e+01 4.4411902222e+01 1.0566000000e-01 0.0000e+00 -1.0000e+00
    10002  1    1    2    0    0 -1.0966514872e+02 -9.6027662593e+01 -9.8696758255e+01 2.0245692608e+02 1.0000000000e+02 0.0000e+00 0.0000e+00
   -10002  1    1    2    0    0 +9.4954538315e+01 +7.7022488394e+01 +2.6458607344e+01 1.6015269579e+02 1.0000000000e+02 0.0000e+00 0.0000e+00
<mgrwt>
<rscale>  0 0.46425948E+03</rscale>
<asrwt>0</asrwt>
<pdfrwt beam="1">  1        4 0.53847709E-01 0.46425948E+03</pdfrwt>
<pdfrwt beam="2">  1       -4 0.62542374E-01 0.46425948E+03</pdfrwt>
<totfact> 0.15320887E+01</totfact>
</mgrwt>
</event>
<event>
 6      1 +2.6141198e-09 4.28632500e+02 7.81860800e-03 1.03429300e-01
       -4 -1    0    0    0  501 -0.0000000000e+00 +0.0000000000e+00 +1.8401286644e+02 1.8401724897e+02 1.2700000000e+00 0.0000e+00 -1.0000e+00
        4 -1    0    0  501    0 +0.0000000000e+00 -0.0000000000e+00 -2.4960102436e+02 2.4960425530e+02 1.2700000000e+00 0.0000e+00 -1.0000e+00
      -13  1    1    2    0    0 +4.9615531277e+00 -3.8693615220e+01 -2.6184867330e+01 4.6983734519e+01 1.0566000000e-01 0.0000e+00 -1.0000e+00
       13  1    1    2    0    0 -3.9394231768e+01 +6.3481244022e+01 -5.0393867925e+01 9.0118405044e+01 1.0566000000e-01 0.0000e+00 1.0000e+00
    10002  1    1    2    0    0 -2.9142064806e+01 -1.0412629400e+02 +3.6293322320e+01 1.5168635499e+02 1.0000000000e+02 0.0000e+00 0.0000e+00
   -10002  1    1    2    0    0 +6.3574743446e+01 +7.9338665199e+01 -2.5302744983e+01 1.4483300972e+02 1.0000000000e+02 0.0000e+00 0.0000e+00
<mgrwt>
<rscale>  0 0.42863248E+03</rscale>
<asrwt>0</asrwt>
<pdfrwt beam="1">  1        4 0.62401208E-01 0.42863248E+03</pdfrwt>
<pdfrwt beam="2">  1       -4 0.46004168E-01 0.42863248E+03</pdfrwt>
<totfact> 0.21257388E+01</totfact>
</mgrwt>
</event>
<event>
 6      1 +2.6141198e-09 5.87018100e+02 7.81860800e-03 9.93271100e-02
       -4 -1    0    0    0  501 -0.0000000000e+00 +0.0000000000e+00 +7.1024171503e+02 7.1024285049e+02 1.2700000000e+00 0.0000e+00 -1.0000e+00
        4 -1    0    0  501    0 +0.0000000000e+00 -0.0000000000e+00 -1.2128875006e+02 1.2129539888e+02 1.2700000000e+00 0.0000e+00 -1.0000e+00
      -13  1    1    2    0    0 +2.5699814520e+01 -1.8691455957e+01 -1.2780354988e+01 3.4252001836e+01 1.0566000000e-01 0.0000e+00 1.0000e+00
       13  1    1    2    0    0 +1.2091286028e+02 +6.7872271490e+01 +8.3051970491e+01 1.6162984249e+02 1.0566000000e-01 0.0000e+00 -1.0000e+00
    10002  1    1    2    0    0 +5.4232156481e+01 -5.5228256887e+01 +2.8422728848e+02 3.1108911693e+02 1.0000000000e+02 0.0000e+00 0.0000e+00
   -10002  1    1    2    0    0 -2.0084483128e+02 +6.0474413533e+00 +2.3445406099e+02 3.2456728811e+02 1.0000000000e+02 0.0000e+00 0.0000e+00
<mgrwt>
<rscale>  0 0.58701811E+03</rscale>
<asrwt>0</asrwt>
<pdfrwt beam="1">  1        4 0.30323161E-01 0.58701811E+03</pdfrwt>
<pdfrwt beam="2">  1       -4 0.17756140E+00 0.58701811E+03</pdfrwt>
<totfact> 0.38999959E+00</totfact>
</mgrwt>
</event>
<event>
 6      1 +2.6141198e-09 4.76234000e+02 7.81860800e-03 1.02017500e-01
        4 -1    0    0  501    0 +0.0000000000e+00 +0.0000000000e+00 +4.7876603039e+01 4.7893444422e+01 1.2700000000e+00 0.0000e+00 1.0000e+00
       -4 -1    0    0    0  501 -0.0000000000e+00 -0.0000000000e+00 -1.1840629744e+03 1.1840636554e+03 1.2700000000e+00 0.0000e+00 1.0000e+00
      -13  1    1    2    0    0 -1.2788190213e+02 -6.0369491430e+01 -3.6997320389e+02 3.9607882946e+02 1.0566000000e-01 0.0000e+00 -1.0000e+00
       13  1    1    2    0    0 +1.2020890681e+01 +3.4581664025e+00 -3.2417320671e+01 3.4747008089e+01 1.0566000000e-01 0.0000e+00 1.0000e+00
    10002  1    1    2    0    0 +1.6005441718e+02 -1.3438911834e+01 -3.8720453720e+02 4.3095866906e+02 1.0000000000e+02 0.0000e+00 0.0000e+00
   -10002  1    1    2    0    0 -4.4193405726e+01 +7.0350236862e+01 -3.4659130957e+02 3.7017259326e+02 1.0000000000e+02 0.0000e+00 0.0000e+00
<mgrwt>
<rscale>  0 0.47623400E+03</rscale>
<asrwt>0</asrwt>
<pdfrwt beam="1">  1        4 0.11971345E-01 0.47623400E+03</pdfrwt>
<pdfrwt beam="2">  1       -4 0.29601784E+00 0.47623400E+03</pdfrwt>
<totfact> 0.39100464E+00</totfact>
</mgrwt>
</event>
<event>
 6      1 +2.6141198e-09 5.50300800e+02 7.81860800e-03 1.00142400e-01
        4 -1    0    0  501    0 +0.0000000000e+00 +0.0000000000e+00 +9.6225399351e+01 9.6233779829e+01 1.2700000000e+00 0.0000e+00 1.0000e+00
       -4 -1    0    0    0  501 -0.0000000000e+00 -0.0000000000e+00 -7.8673189960e+02 7.8673292466e+02 1.2700000000e+00 0.0000e+00 1.0000e+00
      -13  1    1    2    0    0 -8.2505439485e+01 +9.1244808312e+01 -1.5897692367e+02 2.0101352196e+02 1.0566000000e-01 0.0000e+00 1.0000e+00
       13  1    1    2    0    0 +2.4004404931e+01 +1.5144981310e+01 -4.1101889441e+01 4.9949558503e+01 1.0566000000e-01 0.0000e+00 -1.0000e+00
    10002  1    1    2    0    0 +1.0766059700e+02 -7.5751527079e+01 -4.8925781279e+02 5.1643228537e+02 1.0000000000e+02 0.0000e+00 0.0000e+00
   -10002  1    1    2    0    0 -4.9159562445e+01 -3.0638262543e+01 -1.1698743482e+00 1.1557133865e+02 1.0000000000e+02 0.0000e+00 0.0000e+00
<mgrwt>
<rscale>  0 0.55030080E+03</rscale>
<asrwt>0</asrwt>
<pdfrwt beam="1">  1        4 0.24057528E-01 0.55030080E+03</pdfrwt>
<pdfrwt beam="2">  1       -4 0.19668413E+00 0.55030080E+03</pdfrwt>
<totfact> 0.45092735E+00</totfact>
</mgrwt>
</event>
<event>
 6      1 +2.6141198e-09 3.75837300e+02 7.81860800e-03 1.05248300e-01
       -4 -1    0    0    0  501 -0.0000000000e+00 +0.0000000000e+00 +5.9584481228e+01 5.9598014255e+01 1.2700000000e+00 0.0000e+00 -1.0000e+00
        4 -1    0    0  501    0 +0.0000000000e+00 -0.0000000000e+00 -5.9257995637e+02 5.9258131729e+02 1.2700000000e+00 0.0000e+00 -1.0000e+00
      -13  1    1    2    0    0 -3.8118190945e+01 +1.5209359465e+01 -2.2053134440e+01 4.6590481849e+01 1.0566000000e-01 0.0000e+00 1.0000e+00
       13  1    1    2    0    0 +5.2579180391e+01 -1.7326114592e+01 -1.2931697698e+02 1.4066860402e+02 1.0566000000e-01 0.0000e+00 -1.0000e+00
    10002  1    1    2    0    0 -8.4270712478e+01 -3.9558258095e+01 -1.9249623407e+02 2.3605340264e+02 1.0000000000e+02 0.0000e+00 0.0000e+00
   -10002  1    1    2    0    0 +6.9809723032e+01 +4.1675013222e+01 -1.8912912965e+02 2.2886684303e+02 1.0000000000e+02 0.0000e+00 0.0000e+00
<mgrwt>
<rscale>  0 0.37583734E+03</rscale>
<asrwt>0</asrwt>
<pdfrwt beam="1">  1        4 0.14814683E+00 0.37583734E+03</pdfrwt>
<pdfrwt beam="2">  1       -4 0.14897984E-01 0.37583734E+03</pdfrwt>
<totfact> 0.23392454E+01</totfact>
</mgrwt>
</event>
<event>
 6      1 +2.6141198e-09 5.15527300e+02 7.81860800e-03 1.00980400e-01
       -4 -1    0    0    0  501 -0.0000000000e+00 +0.0000000000e+00 +7.2209101387e+02 7.2209213070e+02 1.2700000000e+00 0.0000e+00 -1.0000e+00
        4 -1    0    0  501    0 +0.0000000000e+00 -0.0000000000e+00 -9.2007895302e+01 9.2016659894e+01 1.2700000000e+00 0.0000e+00 -1.0000e+00
      -13  1    1    2    0    0 +1.9015254768e+01 -1.7048871748e+01 +2.1507346389e+01 3.3388936109e+01 1.0566000000e-01 0.0000e+00 -1.0000e+00
       13  1    1    2    0    0 -9.5083201124e+01 +2.1171224153e+01 +1.8735166786e+01 9.9197043840e+01 1.0566000000e-01 0.0000e+00 1.0000e+00
    10002  1    1    2    0    0 -5.7863232040e+01 -5.7734070897e+01 +1.0685395005e+02 1.6762799052e+02 1.0000000000e+02 0.0000e+00 0.0000e+00
   -10002  1    1    2    0    0 +1.3393117840e+02 +5.3611718491e+01 +4.8298665535e+02 5.1389482013e+02 1.0000000000e+02 0.0000e+00 0.0000e+00
<mgrwt>
<rscale>  0 0.51552729E+03</rscale>
<asrwt>0</asrwt>
<pdfrwt beam="1">  1        4 0.23003210E-01 0.51552729E+03</pdfrwt>
<pdfrwt beam="2">  1       -4 0.18052398E+00 0.51552729E+03</pdfrwt>
<totfact> 0.62826055E+00</totfact>
</mgrwt>
</event>
<event>
 6      1 +2.6141198e-09 3.83784800e+02 7.81860800e-03 1.04954400e-01
       -4 -1    0    0    0  501 -0.0000000000e+00 +0.0000000000e+00 +4.0777018183e+02 4.0777215953e+02 1.2700000000e+00 0.0000e+00 1.0000e+00
        4 -1    0    0  501    0 +0.0000000000e+00 -0.0000000000e+00 -9.0295904970e+01 9.0304835719e+01 1.2700000000e+00 0.0000e+00 1.0000e+00
      -13  1    1    2    0    0 -7.5975628078e+01 +3.7422492469e+00 +3.8605439349e+01 8.5303526320e+01 1.0566000000e-01 0.0000e+00 1.0000e+00
       13  1    1    2    0    0 +2.6703513121e+01 -6.3349745289e+00 +6.3311016837e+01 6.9003663180e+01 1.0566000000e-01 0.0000e+00 -1.0000e+00
    10002  1    1    2    0    0 +1.0536690027e+02 -2.8817900112e+01 +1.0620726675e+02 1.8224334981e+02 1.0000000000e+02 0.0000e+00 0.0000e+00
   -10002  1    1    2    0    0 -5.6094785309e+01 +3.1410625394e+01 +1.0935055393e+02 1.6152645595e+02 1.0000000000e+02 0.0000e+00 0.0000e+00
<mgrwt>
<rscale>  0 0.38378481E+03</rscale>
<asrwt>0</asrwt>
<pdfrwt beam="1">  1        4 0.22575340E-01 0.38378481E+03</pdfrwt>
<pdfrwt beam="2">  1       -4 0.10194391E+00 0.38378481E+03</pdfrwt>
<totfact> 0.27851996E+01</totfact>
</mgrwt>
</event>
<event>
 6      1 +2.6141198e-09 4.67844900e+02 7.81860800e-03 1.02253000e-01
       -4 -1    0    0    0  501 -0.0000000000e+00 +0.0000000000e+00 +2.2462298348e+02 2.2462657369e+02 1.2700000000e+00 0.0000e+00 -1.0000e+00
        4 -1    0    0  501    0 +0.0000000000e+00 -0.0000000000e+00 -2.4359976343e+02 2.4360307396e+02 1.2700000000e+00 0.0000e+00 -1.0000e+00
      -13  1    1    2    0    0 +9.9680506218e+00 -8.5115659575e+01 +8.3345770716e-01 8.5701478131e+01 1.0566000000e-01 0.0000e+00 1.0000e+00
       13  1    1    2    0    0 +2.6457239959e+01 +5.9905940979e+00 +5.6986434252e+00 2.7719279659e+01 1.0566000000e-01 0.0000e+00 -1.0000e+00
    10002  1    1    2    0    0 -1.1749400217e+02 -2.7742559418e+01 -8.3649305849e+01 1.7768426075e+02 1.0000000000e+02 0.0000e+00 0.0000e+00
   -10002  1    1    2    0    0 +8.1068711586e+01 +1.0686762489e+02 +5.8140424766e+01 1.7712462912e+02 1.0000000000e+02 0.0000e+00 0.0000e+00
<mgrwt>
<rscale>  0 0.46784494E+03</rscale>
<asrwt>0</asrwt>
<pdfrwt beam="1">  1        4 0.60900803E-01 0.46784494E+03</pdfrwt>
<pdfrwt beam="2">  1       -4 0.56156609E-01 0.46784494E+03</pdfrwt>
<totfact> 0.14853593E+01</totfact>
</mgrwt>
</event>
<event>
 6      1 +2.6141198e-09 5.72429800e+02 7.81860800e-03 9.96431600e-02
        4 -1    0    0  501    0 +0.0000000000e+00 +0.0000000000e+00 +7.1056870508e+01 7.1068218961e+01 1.2700000000e+00 0.0000e+00 -1.0000e+00
       -4 -1    0    0    0  501 -0.0000000000e+00 -0.0000000000e+00 -1.1527610204e+03 1.1527617199e+03 1.2700000000e+00 0.0000e+00 -1.0000e+00
      -13  1    1    2    0    0 -9.0633634191e+01 +3.8350262365e+01 -3.4545425754e+02 3.5919890519e+02 1.0566000000e-01 0.0000e+00 1.0000e+00
       13  1    1    2    0    0 +1.0666268565e+01 +3.5678087332e+01 -7.1989147016e+01 8.1050253873e+01 1.0566000000e-01 0.0000e+00 -1.0000e+00
    10002  1    1    2    0    0 -1.3671273820e+02 -3.2611190318e+01 -3.0246475402e+02 3.4819360985e+02 1.0000000000e+02 0.0000e+00 0.0000e+00
   -10002  1    1    2    0    0 +2.1668010383e+02 -4.1417159378e+01 -3.6179599128e+02 4.3538716999e+02 1.0000000000e+02 0.0000e+00 0.0000e+00
<mgrwt>
<rscale>  0 0.57242978E+03</rscale>
<asrwt>0</asrwt>
<pdfrwt beam="1">  1        4 0.17765727E-01 0.57242978E+03</pdfrwt>
<pdfrwt beam="2">  1       -4 0.28819170E+00 0.57242978E+03</pdfrwt>
<totfact> 0.21522159E+00</totfact>
</mgrwt>
</event>
<event>
 6      1 +2.6141198e-09 4.36307200e+02 7.81860800e-03 1.03188600e-01
        4 -1    0    0  501    0 +0.0000000000e+00 +0.0000000000e+00 +2.7054268682e+02 2.7054566767e+02 1.2700000000e+00 0.0000e+00 1.0000e+00
       -4 -1    0    0    0  501 -0.0000000000e+00 -0.0000000000e+00 -1.7590313623e+02 1.7590772080e+02 1.2700000000e+00 0.0000e+00 1.0000e+00
      -13  1    1    2    0    0 -4.1982462682e+01 +8.0942222587e+01 +4.0002406206e+00 9.1269839812e+01 1.0566000000e-01 0.0000e+00 1.0000e+00
       13  1    1    2    0    0 +3.1313575712e+01 -1.2305683782e+01 +1.4324861821e+01 3.6567508904e+01 1.0566000000e-01 0.0000e+00 -1.0000e+00
    10002  1    1    2    0    0 +8.6896648531e+01 +3.2258524150e+01 -8.1872552992e+00 1.3659674614e+02 1.0000000000e+02 0.0000e+00 0.0000e+00
   -10002  1    1    2    0    0 -7.6227761561e+01 -1.0089506295e+02 +8.4501703449e+01 1.8201929361e+02 1.0000000000e+02 0.0000e+00 0.0000e+00
<mgrwt>
<rscale>  0 0.43630721E+03</rscale>
<asrwt>0</asrwt>
<pdfrwt beam="1">  1        4 0.67636617E-01 0.43630721E+03</pdfrwt>
<pdfrwt beam="2">  1       -4 0.43976730E-01 0.43630721E+03</pdfrwt>
<totfact> 0.19584144E+01</totfact>
</mgrwt>
</event>
<event>
 6      1 +2.6141198e-09 9.34380600e+02 7.81860800e-03 9.38359600e-02
       -4 -1    0    0    0  501 -0.0000000000e+00 +0.0000000000e+00 +5.5886332549e+02 5.5886476851e+02 1.2700000000e+00 0.0000e+00 -1.0000e+00
        4 -1    0    0  501    0 +0.0000000000e+00 -0.0000000000e+00 -3.9055185133e+02 3.9055391622e+02 1.2700000000e+00 0.0000e+00 -1.0000e+00
      -13  1    1    2    0    0 +2.1824948604e+01 -2.1446489321e+01 +8.1910254237e+01 8.7439014170e+01 1.0566000000e-01 0.0000e+00 1.0000e+00
       13  1    1    2    0    0 -3.4022418029e+01 +6.1734594127e+01 +1.1229765932e+02 1.3258755784e+02 1.0566000000e-01 0.0000e+00 -1.0000e+00
    10002  1    1    2    0    0 +1.4871352844e+02 +2.7223693399e+02 -1.4198810899e+02 3.5551270704e+02 1.0000000000e+02 0.0000e+00 0.0000e+00
   -10002  1    1    2    0    0 -1.3651605902e+02 -3.1252503880e+02 +1.1609166960e+02 3.7387940569e+02 1.0000000000e+02 0.0000e+00 0.0000e+00
<mgrwt>
<rscale>  0 0.93438059E+03</rscale>
<asrwt>0</asrwt>
<pdfrwt beam="1">  1        4 0.97638402E-01 0.93438059E+03</pdfrwt>
<pdfrwt beam="2">  1       -4 0.13971627E+00 0.93438059E+03</pdfrwt>
<totfact> 0.61163234E-01</totfact>
</mgrwt>
</event>
<event>
 6      1 +2.6141198e-09 5.35153400e+02 7.81860800e-03 1.00499000e-01
       -4 -1    0    0    0  501 -0.0000000000e+00 +0.0000000000e+00 +2.7569110738e+02 2.7569403256e+02 1.2700000000e+00 0.0000e+00 1.0000e+00
        4 -1    0    0  501    0 +0.0000000000e+00 -0.0000000000e+00 -2.5969528964e+02 2.5969839499e+02 1.2700000000e+00 0.0000e+00 1.0000e+00
      -13  1    1    2    0    0 -5.3240696792e+01 -3.7758442590e+01 -2.8433490640e+01 7.1195128595e+01 1.0566000000e-01 0.0000e+00 -1.0000e+00
       13  1    1    2    0    0 +1.6273270043e+01 +3.8720021043e+01 -3.9831983397e+01 5.7884863417e+01 1.0566000000e-01 0.0000e+00 1.0000e+00
    10002  1    1    2    0    0 +1.4892363173e+02 -2.5409383435e+01 +1.5513517122e+02 2.3851793686e+02 1.0000000000e+02 0.0000e+00 0.0000e+00
   -10002  1    1    2    0    0 -1.1195620498e+02 +2.4447804982e+01 -7.0873879435e+01 1.6779449868e+02 1.0000000000e+02 0.0000e+00 0.0000e+00
<mgrwt>
<rscale>  0 0.53515342E+03</rscale>
<asrwt>0</asrwt>
<pdfrwt beam="1">  1        4 0.64924576E-01 0.53515342E+03</pdfrwt>
<pdfrwt beam="2">  1       -4 0.68923531E-01 0.53515342E+03</pdfrwt>
<totfact> 0.83522433E+00</totfact>
</mgrwt>
</event>
<event>
 6      1 +2.6141198e-09 4.35402700e+02 7.81860800e-03 1.03216700e-01
       -4 -1    0    0    0  501 -0.0000000000e+00 +0.0000000000e+00 +8.3679395526e+02 8.3679491899e+02 1.2700000000e+00 0.0000e+00 1.0000e+00
        4 -1    0    0  501    0 +0.0000000000e+00 -0.0000000000e+00 -5.6629327064e+01 5.6643566128e+01 1.2700000000e+00 0.0000e+00 1.0000e+00
      -13  1    1    2    0    0 +9.7664365242e+00 +7.2300160526e+01 +8.5509415858e+01 1.1240359362e+02 1.0566000000e-01 0.0000e+00 -1.0000e+00
       13  1    1    2    0    0 -4.2194786062e+01 -3.0763437102e+01 +3.6567427205e+01 6.3749328856e+01 1.0566000000e-01 0.0000e+00 1.0000e+00
    10002  1    1    2    0    0 +3.5655495746e+01 +4.5197868269e+01 +1.3449556206e+02 1.7720953103e+02 1.0000000000e+02 0.0000e+00 0.0000e+00
   -10002  1    1    2    0    0 -3.2271462085e+00 -8.6734591693e+01 +5.2359222307e+02 5.4007603162e+02 1.0000000000e+02 0.0000e+00 0.0000e+00
<mgrwt>
<rscale>  0 0.43540266E+03</rscale>
<asrwt>0</asrwt>
<pdfrwt beam="1">  1        4 0.14159232E-01 0.43540266E+03</pdfrwt>
<pdfrwt beam="2">  1       -4 0.20920039E+00 0.43540266E+03</pdfrwt>
<totfact> 0.98009930E+00</totfact>
</mgrwt>
</event>
<event>
 6      1 +2.6141198e-09 6.35558100e+02 7.81860800e-03 9.83426200e-02
       -4 -1    0    0    0  501 -0.0000000000e+00 +0.0000000000e+00 +1.3150558880e+02 1.3151172110e+02 1.2700000000e+00 0.0000e+00 -1.0000e+00
        4 -1    0    0  501    0 +0.0000000000e+00 -0.0000000000e+00 -7.6787839914e+02 7.6787944937e+02 1.2700000000e+00 0.0000e+00 -1.0000e+00
      -13  1    1    2    0    0 -2.5111378551e+01 +1.4646919756e+01 +1.5165612365e+01 3.2789030994e+01 1.0566000000e-01 0.0000e+00 1.0000e+00
       13  1    1    2    0    0 +8.9405604334e-02 +4.3257978711e+01 -9.8957362065e+01 1.0799921938e+02 1.0566000000e-01 0.0000e+00 -1.0000e+00
    10002  1    1    2    0    0 +5.3350848748e+01 -2.6091992053e+02 -2.4333456926e+02 3.7434907585e+02 1.0000000000e+02 0.0000e+00 0.0000e+00
   -10002  1    1    2    0    0 -2.8328875801e+01 +2.0301502207e+02 -3.0924649137e+02 3.8425384424e+02 1.0000000000e+02 0.0000e+00 0.0000e+00
<mgrwt>
<rscale>  0 0.63555812E+03</rscale>
<asrwt>0</asrwt>
<pdfrwt beam="1">  1        4 0.19197049E+00 0.63555812E+03</pdfrwt>
<pdfrwt beam="2">  1       -4 0.32877297E-01 0.63555812E+03</pdfrwt>
<totfact> 0.26607619E+00</totfact>
</mgrwt>
</event>
<event>
 6      1 +2.6141198e-09 5.31737900e+02 7.81860800e-03 1.00581200e-01
       -4 -1    0    0    0  501 -0.0000000000e+00 +0.0000000000e+00 +2.6017084563e+02 2.6017394531e+02 1.2700000000e+00 0.0000e+00 -1.0000e+00
        4 -1    0    0  501    0 +0.0000000000e+00 -0.0000000000e+00 -2.7168559929e+02 2.7168856760e+02 1.2700000000e+00 0.0000e+00 -1.0000e+00
      -13  1    1    2    0    0 -3.5375722758e+01 +2.2359973995e+01 -1.8853791578e+01 4.5900836796e+01 1.0566000000e-01 0.0000e+00 1.0000e+00
       13  1    1    2    0    0 +1.1199632475e+01 -3.2346833823e+01 +5.2139956555e+01 6.2372555340e+01 1.0566000000e-01 0.0000e+00 -1.0000e+00
    10002  1    1    2    0    0 +1.2910078908e+02 -8.5059041570e+01 +8.9112191085e+01 2.0455570609e+02 1.0000000000e+02 0.0000e+00 0.0000e+00
   -10002  1    1    2    0    0 -1.0492469880e+02 +9.5045901399e+01 -1.3391310972e+02 2.1903341468e+02 1.0000000000e+02 0.0000e+00 0.0000e+00
<mgrwt>
<rscale>  0 0.53173785E+03</rscale>
<asrwt>0</asrwt>
<pdfrwt beam="1">  1        4 0.67922158E-01 0.53173785E+03</pdfrwt>
<pdfrwt beam="2">  1       -4 0.65043470E-01 0.53173785E+03</pdfrwt>
<totfact> 0.85894284E+00</totfact>
</mgrwt>
</event>
<event>
 6      1 +2.6141198e-09 5.37643300e+02 7.81860800e-03 1.00439500e-01
        4 -1    0    0  501    0 +0.0000000000e+00 +0.0000000000e+00 +3.3937016071e+02 3.3937253702e+02 1.2700000000e+00 0.0000e+00 1.0000e+00
       -4 -1    0    0    0  501 -0.0000000000e+00 -0.0000000000e+00 -2.1293376054e+02 2.1293754783e+02 1.2700000000e+00 0.0000e+00 1.0000e+00
      -13  1    1    2    0    0 +2.9528850852e+01 +2.2050254181e+01 +6.6662172689e+01 7.6171012686e+01 1.0566000000e-01 0.0000e+00 1.0000e+00
       13  1    1    2    0    0 -3.7235152153e+01 -3.1068924114e+01 +1.3993120434e+01 5.0473291799e+01 1.0566000000e-01 0.0000e+00 -1.0000e+00
    10002  1    1    2    0    0 -1.2602261685e+02 +1.3605261550e+02 -1.0237702321e+00 2.1069661185e+02 1.0000000000e+02 0.0000e+00 0.0000e+00
   -10002  1    1    2    0    0 +1.3372891815e+02 -1.2703394556e+02 +4.6804877283e+01 2.1496916851e+02 1.0000000000e+02 0.0000e+00 0.0000e+00
<mgrwt>
<rscale>  0 0.53764325E+03</rscale>
<asrwt>0</asrwt>
<pdfrwt beam="1">  1        4 0.84843310E-01 0.53764325E+03</pdfrwt>
<pdfrwt beam="2">  1       -4 0.53234211E-01 0.53764325E+03</pdfrwt>
<totfact> 0.80117734E+00</totfact>
</mgrwt>
</event>
<event>
 6      1 +2.6141198e-09 3.66296700e+02 7.81860800e-03 1.05611800e-01
        4 -1    0    0  501    0 +0.0000000000e+00 +0.0000000000e+00 +3.9944115858e+02 3.9944317752e+02 1.2700000000e+00 0.0000e+00 1.0000e+00
       -4 -1    0    0    0  501 -0.0000000000e+00 -0.0000000000e+00 -8.3968586608e+01 8.3978190246e+01 1.2700000000e+00 0.0000e+00 1.0000e+00
      -13  1    1    2    0    0 -1.0963829382e+01 -6.2895712517e+01 +1.9342155304e+01 6.6709866913e+01 1.0566000000e-01 0.0000e+00 -1.0000e+00
       13  1    1    2    0    0 +2.4763892997e+01 -1.5169684974e+01 +7.8875126132e+01 8.4051570032e+01 1.0566000000e-01 0.0000e+00 1.0000e+00
    10002  1    1    2    0    0 +3.7057987967e+01 +3.3864666144e+01 +1.6920547591e+02 2.0285611444e+02 1.0000000000e+02 0.0000e+00 0.0000e+00
   -10002  1    1    2    0    0 -5.0858051582e+01 +4.4200731347e+01 +4.8049814620e+01 1.2980381638e+02 1.0000000000e+02 0.0000e+00 0.0000e+00
<mgrwt>
<rscale>  0 0.36629670E+03</rscale>
<asrwt>0</asrwt>
<pdfrwt beam="1">  1        4 0.99861741E-01 0.36629670E+03</pdfrwt>
<pdfrwt beam="2">  1       -4 0.20993600E-01 0.36629670E+03</pdfrwt>
<totfact> 0.33339530E+01</totfact>
</mgrwt>
</event>
<event>
 6      1 +2.6141198e-09 6.65181100e+02 7.81860800e-03 9.77870300e-02
        4 -1    0    0  501    0 +0.0000000000e+00 +0.0000000000e+00 +8.6548216624e+02 8.6548309803e+02 1.2700000000e+00 0.0000e+00 -1.0000e+00
       -4 -1    0    0    0  501 -0.0000000000e+00 -0.0000000000e+00 -1.2780491136e+02 1.2781122122e+02 1.2700000000e+00 0.0000e+00 -1.0000e+00
      -13  1    1    2    0    0 -1.1532684604e+02 -1.5467618392e+01 +1.6921897231e+02 2.0536455486e+02 1.0566000000e-01 0.0000e+00 1.0000e+00
       13  1    1    2    0    0 -8.1204143354e+01 +7.9311043305e+01 +8.0818660477e+01 1.3934138486e+02 1.0566000000e-01 0.0000e+00 -1.0000e+00
    10002  1    1    2    0    0 -4.7890534661e+01 -4.9546950230e+01 +3.8559877565e+01 1.2741769008e+02 1.0000000000e+02 0.0000e+00 0.0000e+00
   -10002  1    1    2    0    0 +2.4442152406e+02 -1.4296474684e+01 +4.4907974452e+02 5.2117068946e+02 1.0000000000e+02 0.0000e+00 0.0000e+00
<mgrwt>
<rscale>  0 0.66518108E+03</rscale>
<asrwt>0</asrwt>
<pdfrwt beam="1">  1        4 0.21637145E+00 0.66518108E+03</pdfrwt>
<pdfrwt beam="2">  1       -4 0.31952133E-01 0.66518108E+03</pdfrwt>
<totfact> 0.19546715E+00</totfact>
</mgrwt>
</event>
<event>
 6      1 +2.6141198e-09 4.37310500e+02 7.81860800e-03 1.03157500e-01
        4 -1    0    0  501    0 +0.0000000000e+00 +0.0000000000e+00 +9.3398689384e+01 9.3407323474e+01 1.2700000000e+00 0.0000e+00 -1.0000e+00
       -4 -1    0    0    0  501 -0.0000000000e+00 -0.0000000000e+00 -5.1185972756e+02 5.1186130308e+02 1.2700000000e+00 0.0000e+00 -1.0000e+00
      -13  1    1    2    0    0 -2.3906894404e+01 +2.3779252257e+01 -1.0666833682e+02 1.1187107616e+02 1.0566000000e-01 0.0000e+00 -1.0000e+00
       13  1    1    2    0    0 +1.2662008087e+01 -1.6161208924e+01 +1.1392071316e+01 2.3479812086e+01 1.0566000000e-01 0.0000e+00 1.0000e+00
    10002  1    1    2    0    0 -3.1906728721e+01 +1.1173422209e+02 -6.7611786221e+01 1.6755276589e+02 1.0000000000e+02 0.0000e+00 0.0000e+00
   -10002  1    1    2    0    0 +4.3151615038e+01 -1.1935226542e+02 -2.5557298645e+02 3.0236497241e+02 1.0000000000e+02 0.0000e+00 0.0000e+00
<mgrwt>
<rscale>  0 0.43731050E+03</rscale>
<asrwt>0</asrwt>
<pdfrwt beam="1">  1        4 0.23350950E-01 0.43731050E+03</pdfrwt>
<pdfrwt beam="2">  1       -4 0.12796620E+00 0.43731050E+03</pdfrwt>
<totfact> 0.15143965E+01</totfact>
</mgrwt>
</event>
<event>
 6      1 +2.6141198e-09 3.78104900e+02 7.81860800e-03 1.05163600e-01
        4 -1    0    0  501    0 +0.0000000000e+00 +0.0000000000e+00 +2.1551724856e+02 2.1552099045e+02 1.2700000000e+00 0.0000e+00 -1.0000e+00
       -4 -1    0    0    0  501 -0.0000000000e+00 -0.0000000000e+00 -1.6582984664e+02 1.6583470969e+02 1.2700000000e+00 0.0000e+00 -1.0000e+00
      -13  1    1    2    0    0 -4.8286215483e+01 +1.0350840642e+01 -2.3223133552e+00 4.9437868189e+01 1.0566000000e-01 0.0000e+00 -1.0000e+00
       13  1    1    2    0    0 +4.7044081528e+01 +2.5563538750e+01 +5.0195051388e+01 7.3390697422e+01 1.0566000000e-01 0.0000e+00 1.0000e+00
    10002  1    1    2    0    0 +2.8216486572e+01 -9.0052367238e+01 -2.2025590077e+01 1.3925058556e+02 1.0000000000e+02 0.0000e+00 0.0000e+00
   -10002  1    1    2    0    0 -2.6974352617e+01 +5.4137987846e+01 +2.3840253958e+01 1.1927654898e+02 1.0000000000e+02 0.0000e+00 0.0000e+00
<mgrwt>
<rscale>  0 0.37810492E+03</rscale>
<asrwt>0</asrwt>
<pdfrwt beam="1">  1        4 0.53880388E-01 0.37810492E+03</pdfrwt>
<pdfrwt beam="2">  1       -4 0.41458537E-01 0.37810492E+03</pdfrwt>
<totfact> 0.35584826E+01</totfact>
</mgrwt>
</event>
<event>
 6      1 +2.6141198e-09 4.50373100e+02 7.81860800e-03 1.02761100e-01
       -4 -1    0    0    0  501 -0.0000000000e+00 +0.0000000000e+00 +8.4547645303e+02 8.4547740687e+02 1.2700000000e+00 0.0000e+00 1.0000e+00
        4 -1    0    0  501    0 +0.0000000000e+00 -0.0000000000e+00 -5.9969091936e+01 5.9982538189e+01 1.2700000000e+00 0.0000e+00 1.0000e+00
      -13  1    1    2    0    0 +2.3300635262e+01 +2.3567914147e+01 +5.4651338464e+01 6.3915147977e+01 1.0566000000e-01 0.0000e+00 -1.0000e+00
       13  1    1    2    0    0 -7.3837656345e+01 -3.2705865793e+01 +5.2077504671e+01 9.6092407654e+01 1.0566000000e-01 0.0000e+00 1.0000e+00
    10002  1    1    2    0    0 +9.2703108435e+01 +3.5252168288e+01 +1.5300119723e+02 2.0795660133e+02 1.0000000000e+02 0.0000e+00 0.0000e+00
   -10002  1    1    2    0    0 -4.2166087352e+01 -2.6114216642e+01 +5.2577732072e+02 5.3749578809e+02 1.0000000000e+02 0.0000e+00 0.0000e+00
<mgrwt>
<rscale>  0 0.45037307E+03</rscale>
<asrwt>0</asrwt>
<pdfrwt beam="1">  1        4 0.14994073E-01 0.45037307E+03</pdfrwt>
<pdfrwt beam="2">  1       -4 0.21137091E+00 0.45037307E+03</pdfrwt>
<totfact> 0.85852902E+00</totfact>
</mgrwt>
</event>
<event>
 6      1 +2.6141198e-09 4.05923100e+02 7.81860800e-03 1.04174800e-01
       -4 -1    0    0    0  501 -0.0000000000e+00 +0.0000000000e+00 +1.3823677939e+02 1.3824261310e+02 1.2700000000e+00 0.0000e+00 1.0000e+00
        4 -1    0    0  501    0 +0.0000000000e+00 -0.0000000000e+00 -2.9797810111e+02 2.9798080751e+02 1.2700000000e+00 0.0000e+00 1.0000e+00
      -13  1    1    2    0    0 +4.3192436160e+01 -3.7961346951e+00 -7.8059811412e+00 4.4056119730e+01 1.0566000000e-01 0.0000e+00 -1.0000e+00
       13  1    1    2    0    0 -3.4442280490e+01 -3.6779054011e+01 -6.8062009927e+01 8.4684224379e+01 1.0566000000e-01 0.0000e+00 1.0000e+00
    10002  1    1    2    0    0 -2.4462827911e+01 +1.1553917529e+02 -9.4086095241e+01 1.8110749375e+02 1.0000000000e+02 0.0000e+00 0.0000e+00
   -10002  1    1    2    0    0 +1.5712672241e+01 -7.4963986585e+01 +1.0212764586e+01 1.2637558274e+02 1.0000000000e+02 0.0000e+00 0.0000e+00
<mgrwt>
<rscale>  0 0.40592312E+03</rscale>
<asrwt>0</asrwt>
<pdfrwt beam="1">  1        4 0.74495592E-01 0.40592312E+03</pdfrwt>
<pdfrwt beam="2">  1       -4 0.34560263E-01 0.40592312E+03</pdfrwt>
<totfact> 0.25498996E+01</totfact>
</mgrwt>
</event>
<event>
 6      1 +2.6141198e-09 4.36595800e+02 7.81860800e-03 1.03179600e-01
        4 -1    0    0  501    0 +0.0000000000e+00 +0.0000000000e+00 +9.4851303369e+01 9.4859805244e+01 1.2700000000e+00 0.0000e+00 1.0000e+00
       -4 -1    0    0    0  501 -0.0000000000e+00 -0.0000000000e+00 -5.0237531382e+02 5.0237691909e+02 1.2700000000e+00 0.0000e+00 1.0000e+00
      -13  1    1    2    0    0 +2.5978757406e+01 +3.8737306177e+01 -2.4681788950e+01 5.2770035021e+01 1.0566000000e-01 0.0000e+00 -1.0000e+00
       13  1    1    2    0    0 +3.9923468489e+01 -3.4083597269e+01 -1.5499125016e+02 1.6363946263e+02 1.0566000000e-01 0.0000e+00 1.0000e+00
    10002  1    1    2    0    0 -2.9260067619e+01 +1.0802576419e+02 -1.1032433419e+02 1.8627177994e+02 1.0000000000e+02 0.0000e+00 0.0000e+00
   -10002  1    1    2    0    0 -3.6642158276e+01 -1.1267947310e+02 -1.1752663715e+02 1.9455544675e+02 1.0000000000e+02 0.0000e+00 0.0000e+00
<mgrwt>
<rscale>  0 0.43659579E+03</rscale>
<asrwt>0</asrwt>
<pdfrwt beam="1">  1        4 0.23714091E-01 0.43659579E+03</pdfrwt>
<pdfrwt beam="2">  1       -4 0.12559508E+00 0.43659579E+03</pdfrwt>
<totfact> 0.15417636E+01</totfact>
</mgrwt>
</event>
<event>
 6      1 +2.6141198e-09 5.98858000e+02 7.81860800e-03 9.90777800e-02
        4 -1    0    0  501    0 +0.0000000000e+00 +0.0000000000e+00 +1.6052431042e+02 1.6052933419e+02 1.2700000000e+00 0.0000e+00 1.0000e+00
       -4 -1    0    0    0  501 -0.0000000000e+00 -0.0000000000e+00 -5.5851602873e+02 5.5851747264e+02 1.2700000000e+00 0.0000e+00 1.0000e+00
      -13  1    1    2    0    0 +6.8034616681e+01 -9.5496021856e+01 -1.2168280892e+02 1.6898200025e+02 1.0566000000e-01 0.0000e+00 1.0000e+00
       13  1    1    2    0    0 -2.2711390875e+01 -2.3094092113e+01 +1.2626308921e+00 3.2415270580e+01 1.0566000000e-01 0.0000e+00 -1.0000e+00
    10002  1    1    2    0    0 +1.2891402417e+02 -5.3031344262e+01 -9.0991406999e+01 1.9419213488e+02 1.0000000000e+02 0.0000e+00 0.0000e+00
   -10002  1    1    2    0    0 -1.7423724998e+02 +1.7162145823e+02 -1.8658013329e+02 3.2345740112e+02 1.0000000000e+02 0.0000e+00 0.0000e+00
<mgrwt>
<rscale>  0 0.59885800E+03</rscale>
<asrwt>0</asrwt>
<pdfrwt beam="1">  1        4 0.40131887E-01 0.59885800E+03</pdfrwt>
<pdfrwt beam="2">  1       -4 0.13962981E+00 0.59885800E+03</pdfrwt>
<totfact> 0.42884333E+00</totfact>
</mgrwt>
</event>
<event>
 6      1 +2.6141198e-09 6.23577800e+02 7.81860800e-03 9.85766200e-02
        4 -1    0    0  501    0 +0.0000000000e+00 +0.0000000000e+00 +2.5521356099e+02 2.5521672087e+02 1.2700000000e+00 0.0000e+00 1.0000e+00
       -4 -1    0    0    0  501 -0.0000000000e+00 -0.0000000000e+00 -3.8089923440e+02 3.8090135162e+02 1.2700000000e+00 0.0000e+00 1.0000e+00
      -13  1    1    2    0    0 +2.2428462413e+01 +9.5279080377e+00 -5.9437633520e-01 2.4375836499e+01 1.0566000000e-01 0.0000e+00 1.0000e+00
       13  1    1    2    0    0 -1.2477865974e+02 +4.3885872121e+01 +1.6396958864e+01 1.3328373915e+02 1.0566000000e-01 0.0000e+00 -1.0000e+00
    10002  1    1    2    0    0 -1.0291200213e+02 -6.6807433522e+01 -1.8727117535e+02 2.4520319426e+02 1.0000000000e+02 0.0000e+00 0.0000e+00
   -10002  1    1    2    0    0 +2.0526219946e+02 +1.3393653364e+01 +4.5782919411e+01 2.3325530259e+02 1.0000000000e+02 0.0000e+00 0.0000e+00
<mgrwt>
<rscale>  0 0.62357783E+03</rscale>
<asrwt>0</asrwt>
<pdfrwt beam="1">  1        4 0.63804050E-01 0.62357783E+03</pdfrwt>
<pdfrwt beam="2">  1       -4 0.95225468E-01 0.62357783E+03</pdfrwt>
<totfact> 0.41727023E+00</totfact>
</mgrwt>
</event>
<event>
 6      1 +2.6141198e-09 4.39713200e+02 7.81860800e-03 1.03083500e-01
       -4 -1    0    0    0  501 -0.0000000000e+00 +0.0000000000e+00 +1.2741974618e+02 1.2742607511e+02 1.2700000000e+00 0.0000e+00 1.0000e+00
        4 -1    0    0  501    0 +0.0000000000e+00 -0.0000000000e+00 -3.7933504480e+02 3.7933717075e+02 1.2700000000e+00 0.0000e+00 1.0000e+00
      -13  1    1    2    0    0 +1.3566239939e+01 +2.6684718582e+01 -1.0548389936e+02 1.0964935595e+02 1.0566000000e-01 0.0000e+00 1.0000e+00
       13  1    1    2    0    0 +1.3835377751e+01 -1.9877432123e+01 +1.9073727974e+01 3.0827718828e+01 1.0566000000e-01 0.0000e+00 -1.0000e+00
    10002  1    1    2    0    0 +3.8053425421e+01 +3.4251524153e+01 +4.4787854671e+01 1.2094288743e+02 1.0000000000e+02 0.0000e+00 0.0000e+00
   -10002  1    1    2    0    0 -6.5455043111e+01 -4.1058810612e+01 -2.1029298190e+02 2.4534328365e+02 1.0000000000e+02 0.0000e+00 0.0000e+00
<mgrwt>
<rscale>  0 0.43971317E+03</rscale>
<asrwt>0</asrwt>
<pdfrwt beam="1">  1        4 0.94834816E-01 0.43971317E+03</pdfrwt>
<pdfrwt beam="2">  1       -4 0.31855994E-01 0.43971317E+03</pdfrwt>
<totfact> 0.17321371E+01</totfact>
</mgrwt>
</event>
<event>
 6      1 +2.6141198e-09 4.58049200e+02 7.81860800e-03 1.02534900e-01
        4 -1    0    0  501    0 +0.0000000000e+00 +0.0000000000e+00 +2.2044805167e+02 2.2045170987e+02 1.2700000000e+00 0.0000e+00 1.0000e+00
       -4 -1    0    0    0  501 -0.0000000000e+00 -0.0000000000e+00 -2.3792747643e+02 2.3793086589e+02 1.2700000000e+00 0.0000e+00 1.0000e+00
      -13  1    1    2    0    0 -7.3508219539e+00 +3.7011942245e+01 +2.0500579986e+01 4.2944189315e+01 1.0566000000e-01 0.0000e+00 1.0000e+00
       13  1    1    2    0    0 +3.1086117621e+00 -5.8389963548e+01 +1.8969599422e+01 6.1472824700e+01 1.0566000000e-01 0.0000e+00 -1.0000e+00
    10002  1    1    2    0    0 -5.3451177222e+01 +5.1226062365e+01 +9.8043065097e+01 1.5840953388e+02 1.0000000000e+02 0.0000e+00 0.0000e+00
   -10002  1    1    2    0    0 +5.7693387414e+01 -2.9848041062e+01 -1.5499266926e+02 1.9555602786e+02 1.0000000000e+02 0.0000e+00 0.0000e+00
<mgrwt>
<rscale>  0 0.45804918E+03</rscale>
<asrwt>0</asrwt>
<pdfrwt beam="1">  1        4 0.55112894E-01 0.45804918E+03</pdfrwt>
<pdfrwt beam="2">  1       -4 0.59482750E-01 0.45804918E+03</pdfrwt>
<totfact> 0.16239025E+01</totfact>
</mgrwt>
</event>
<event>
 6      1 +2.6141198e-09 5.28677300e+02 7.81860800e-03 1.00655300e-01
        4 -1    0    0  501    0 +0.0000000000e+00 +0.0000000000e+00 +7.6362365725e+02 7.6362471333e+02 1.2700000000e+00 0.0000e+00 1.0000e+00
       -4 -1    0    0    0  501 -0.0000000000e+00 -0.0000000000e+00 -9.1498859866e+01 9.1507673212e+01 1.2700000000e+00 0.0000e+00 1.0000e+00
      -13  1    1    2    0    0 -2.8523854330e+01 +6.6296040251e+00 +7.7414727131e-01 2.9294579420e+01 1.0566000000e-01 0.0000e+00 -1.0000e+00
       13  1    1    2    0    0 +7.5883489252e+01 -3.4381184373e+01 +6.7993588239e+01 1.0753375742e+02 1.0566000000e-01 0.0000e+00 1.0000e+00
    10002  1    1    2    0    0 -1.1143253263e+02 +5.7445884210e+01 +5.6897939570e+02 5.9114701359e+02 1.0000000000e+02 0.0000e+00 0.0000e+00
   -10002  1    1    2    0    0 +6.4072897704e+01 -2.9694303863e+01 +3.4377666174e+01 1.2715703612e+02 1.0000000000e+02 0.0000e+00 0.0000e+00
<mgrwt>
<rscale>  0 0.52867727E+03</rscale>
<asrwt>0</asrwt>
<pdfrwt beam="1">  1        4 0.19090714E+00 0.52867727E+03</pdfrwt>
<pdfrwt beam="2">  1       -4 0.22875949E-01 0.52867727E+03</pdfrwt>
<totfact> 0.54073331E+00</totfact>
</mgrwt>
</event>
<event>
 6      1 +2.6141198e-09 4.46317000e+02 7.81860800e-03 1.02882600e-01
       -4 -1    0    0    0  501 -0.0000000000e+00 +0.0000000000e+00 +1.1263401006e+02 1.1264116975e+02 1.2700000000e+00 0.0000e+00 -1.0000e+00
        4 -1    0    0  501    0 +0.0000000000e+00 -0.0000000000e+00 -4.4211535058e+02 4.4211717465e+02 1.2700000000e+00 0.0000e+00 -1.0000e+00
      -13  1    1    2    0    0 +9.0485832430e+00 -6.5973853651e+01 -1.4482785324e+02 1.5940371534e+02 1.0566000000e-01 0.0000e+00 1.0000e+00
       13  1    1    2    0    0 -4.4955415322e+01 +2.3823571922e+01 -1.0028898703e+02 1.1245640947e+02 1.0566000000e-01 0.0000e+00 -1.0000e+00
    10002  1    1    2    0    0 +7.1799468034e+01 +1.8780430946e+01 +2.6777052066e+01 1.2737691594e+02 1.0000000000e+02 0.0000e+00 0.0000e+00
   -10002  1    1    2    0    0 -3.5892635954e+01 +2.3369850783e+01 -1.1114155231e+02 1.5552130366e+02 1.0000000000e+02 0.0000e+00 0.0000e+00
<mgrwt>
<rscale>  0 0.44631700E+03</rscale>
<asrwt>0</asrwt>
<pdfrwt beam="1">  1        4 0.11052996E+00 0.44631700E+03</pdfrwt>
<pdfrwt beam="2">  1       -4 0.28159627E-01 0.44631700E+03</pdfrwt>
<totfact> 0.15265500E+01</totfact>
</mgrwt>
</event>
<event>
 6      1 +2.6141198e-09 6.33127800e+02 7.81860800e-03 9.83896400e-02
        4 -1    0    0  501    0 +0.0000000000e+00 +0.0000000000e+00 +3.3011445884e+02 3.3011690177e+02 1.2700000000e+00 0.0000e+00 1.0000e+00
       -4 -1    0    0    0  501 -0.0000000000e+00 -0.0000000000e+00 -3.0356465379e+02 3.0356731038e+02 1.2700000000e+00 0.0000e+00 1.0000e+00
      -13  1    1    2    0    0 -1.0665987691e+01 -1.5307034409e+01 -5.3775199907e+01 5.6919696810e+01 1.0566000000e-01 0.0000e+00 1.0000e+00
       13  1    1    2    0    0 +2.8040468346e+01 +3.9394204386e-01 +3.9335657864e+01 4.8308676229e+01 1.0566000000e-01 0.0000e+00 -1.0000e+00
    10002  1    1    2    0    0 -8.5354990316e+01 +3.2538757327e+01 +2.5115517505e+02 2.8534744971e+02 1.0000000000e+02 0.0000e+00 0.0000e+00
   -10002  1    1    2    0    0 +6.7980509661e+01 -1.7625664962e+01 -2.1016582795e+02 2.4310838940e+02 1.0000000000e+02 0.0000e+00 0.0000e+00
<mgrwt>
<rscale>  0 0.63312778E+03</rscale>
<asrwt>0</asrwt>
<pdfrwt beam="1">  1        4 0.82529252E-01 0.63312778E+03</pdfrwt>
<pdfrwt beam="2">  1       -4 0.75891801E-01 0.63312778E+03</pdfrwt>
<totfact> 0.39616465E+00</totfact>
</mgrwt>
</event>
<event>
 6      1 +2.6141198e-09 4.35555800e+02 7.81860800e-03 1.03211900e-01
        4 -1    0    0  501    0 +0.0000000000e+00 +0.0000000000e+00 +3.4941835246e+02 3.4942066043e+02 1.2700000000e+00 0.0000e+00 -1.0000e+00
       -4 -1    0    0    0  501 -0.0000000000e+00 -0.0000000000e+00 -1.3572618560e+02 1.3573212722e+02 1.2700000000e+00 0.0000e+00 -1.0000e+00
      -13  1    1    2    0    0 +2.4210674521e+01 +6.2488128535e+01 +3.0078523980e+01 7.3455100145e+01 1.0566000000e-01 0.0000e+00 -1.0000e+00
       13  1    1    2    0    0 -3.1690886060e+01 -2.1019286001e+01 +3.7932245489e+01 5.3712094124e+01 1.0566000000e-01 0.0000e+00 1.0000e+00
    10002  1    1    2    0    0 -1.0434772970e+02 -3.0777187576e+01 -1.1832178472e+00 1.4777375942e+02 1.0000000000e+02 0.0000e+00 0.0000e+00
   -10002  1    1    2    0    0 +1.1182794124e+02 -1.0691654958e+01 +1.4686461523e+02 2.1021183396e+02 1.0000000000e+02 0.0000e+00 0.0000e+00
<mgrwt>
<rscale>  0 0.43555583E+03</rscale>
<asrwt>0</asrwt>
<pdfrwt beam="1">  1        4 0.87355619E-01 0.43555583E+03</pdfrwt>
<pdfrwt beam="2">  1       -4 0.33932578E-01 0.43555583E+03</pdfrwt>
<totfact> 0.18515516E+01</totfact>
</mgrwt>
</event>
<event>
 6      1 +2.6141198e-09 4.21713600e+02 7.81860800e-03 1.03651000e-01
       -4 -1    0    0    0  501 -0.0000000000e+00 +0.0000000000e+00 +1.0235673546e+02 1.0236461398e+02 1.2700000000e+00 0.0000e+00 -1.0000e+00
        4 -1    0    0  501    0 +0.0000000000e+00 -0.0000000000e+00 -4.3434337432e+02 4.3434523102e+02 1.2700000000e+00 0.0000e+00 -1.0000e+00
      -13  1    1    2    0    0 +2.9013985258e+01 +3.4717972757e+01 -2.1070783806e+01 4.9911301998e+01 1.0566000000e-01 0.0000e+00 1.0000e+00
       13  1    1    2    0    0 -3.5876191654e+01 -3.2143103499e+01 -1.0724161074e+02 1.1756298085e+02 1.0566000000e-01 0.0000e+00 -1.0000e+00
    10002  1    1    2    0    0 -2.6969237004e+01 +9.4332893116e+01 -1.7313551525e+02 2.2271493239e+02 1.0000000000e+02 0.0000e+00 0.0000e+00
   -10002  1    1    2    0    0 +3.3831443400e+01 -9.6907762374e+01 -3.0538729061e+01 1.4652062975e+02 1.0000000000e+02 0.0000e+00 0.0000e+00
<mgrwt>
<rscale>  0 0.42171356E+03</rscale>
<asrwt>0</asrwt>
<pdfrwt beam="1">  1        4 0.10858706E+00 0.42171356E+03</pdfrwt>
<pdfrwt beam="2">  1       -4 0.25590402E-01 0.42171356E+03</pdfrwt>
<totfact> 0.19051154E+01</totfact>
</mgrwt>
</event>
<event>
 6      1 +2.6141198e-09 3.49261600e+02 7.81860800e-03 1.06291900e-01
       -4 -1    0    0    0  501 -0.0000000000e+00 +0.0000000000e+00 +6.8708678271e+01 6.8720414505e+01 1.2700000000e+00 0.0000e+00 1.0000e+00
        4 -1    0    0  501    0 +0.0000000000e+00 -0.0000000000e+00 -4.4379329727e+02 4.4379511444e+02 1.2700000000e+00 0.0000e+00 1.0000e+00
      -13  1    1    2    0    0 +9.5666212976e+00 -2.3016750774e+01 -9.1184495600e+01 9.4529965943e+01 1.0566000000e-01 0.0000e+00 1.0000e+00
       13  1    1    2    0    0 -2.0310269285e+01 +2.2816464606e+01 -3.6717034015e+00 3.0766713595e+01 1.0566000000e-01 0.0000e+00 -1.0000e+00
    10002  1    1    2    0    0 +9.1568906936e+01 +2.0202623105e+01 -1.4181012975e+02 1.9723874771e+02 1.0000000000e+02 0.0000e+00 0.0000e+00
   -10002  1    1    2    0    0 -8.0825258949e+01 -2.0002336938e+01 -1.3841829025e+02 1.8998010170e+02 1.0000000000e+02 0.0000e+00 0.0000e+00
<mgrwt>
<rscale>  0 0.34926164E+03</rscale>
<asrwt>0</asrwt>
<pdfrwt beam="1">  1        4 0.11095001E+00 0.34926164E+03</pdfrwt>
<pdfrwt beam="2">  1       -4 0.17178865E-01 0.34926164E+03</pdfrwt>
<totfact> 0.37202369E+01</totfact>
</mgrwt>
</event>
<event>
 6      1 +2.6141198e-09 6.37934900e+02 7.81860800e-03 9.82968600e-02
       -4 -1    0    0    0  501 -0.0000000000e+00 +0.0000000000e+00 +4.3841405127e+02 4.3841589073e+02 1.2700000000e+00 0.0000e+00 -1.0000e+00
        4 -1    0    0  501    0 +0.0000000000e+00 -0.0000000000e+00 -2.3206018975e+02 2.3206366490e+02 1.2700000000e+00 0.0000e+00 -1.0000e+00
      -13  1    1    2    0    0 +8.2687942052e-01 +1.8644435377e+01 +4.7880916498e+00 1.9267477411e+01 1.0566000000e-01 0.0000e+00 1.0000e+00
       13  1    1    2    0    0 -5.2894836645e+01 -6.7574402106e+01 +3.0532656511e+01 9.1084674020e+01 1.0566000000e-01 0.0000e+00 -1.0000e+00
    10002  1    1    2    0    0 -8.3867546010e+01 +3.1829140127e+01 +3.1192585254e+02 3.3962419954e+02 1.0000000000e+02 0.0000e+00 0.0000e+00
   -10002  1    1    2    0    0 +1.3593550323e+02 +1.7100826601e+01 -1.4089273918e+02 2.2050320466e+02 1.0000000000e+02 0.0000e+00 0.0000e+00
<mgrwt>
<rscale>  0 0.63793489E+03</rscale>
<asrwt>0</asrwt>
<pdfrwt beam="1">  1        4 0.58015712E-01 0.63793489E+03</pdfrwt>
<pdfrwt beam="2">  1       -4 0.10960418E+00 0.63793489E+03</pdfrwt>
<totfact> 0.36594795E+00</totfact>
</mgrwt>
</event>
<event>
 6      1 +2.6141198e-09 3.74162500e+02 7.81860800e-03 1.05311300e-01
       -4 -1    0    0    0  501 -0.0000000000e+00 +0.0000000000e+00 +9.0054084885e+01 9.0063039614e+01 1.2700000000e+00 0.0000e+00 1.0000e+00
        4 -1    0    0  501    0 +0.0000000000e+00 -0.0000000000e+00 -3.8861922985e+02 3.8862130501e+02 1.2700000000e+00 0.0000e+00 1.0000e+00
      -13  1    1    2    0    0 -7.2592370683e+00 +5.0929299011e+01 -2.9397591062e+01 5.9251325258e+01 1.0566000000e-01 0.0000e+00 1.0000e+00
       13  1    1    2    0    0 -5.0817081938e+00 -3.3436657103e+01 -5.7472503575e+01 6.6685332927e+01 1.0566000000e-01 0.0000e+00 -1.0000e+00
    10002  1    1    2    0    0 +7.9009804596e+00 +6.6220572121e+01 -1.8331444582e+02 2.1920715251e+02 1.0000000000e+02 0.0000e+00 0.0000e+00
   -10002  1    1    2    0    0 +4.4399648025e+00 -8.3713214029e+01 -2.8380604505e+01 1.3354053393e+02 1.0000000000e+02 0.0000e+00 0.0000e+00
<mgrwt>
<rscale>  0 0.37416247E+03</rscale>
<asrwt>0</asrwt>
<pdfrwt beam="1">  1        4 0.97156182E-01 0.37416247E+03</pdfrwt>
<pdfrwt beam="2">  1       -4 0.22514901E-01 0.37416247E+03</pdfrwt>
<totfact> 0.31299663E+01</totfact>
</mgrwt>
</event>
<event>
 6      1 +2.6141198e-09 3.97848600e+02 7.81860800e-03 1.04452700e-01
       -4 -1    0    0    0  501 -0.0000000000e+00 +0.0000000000e+00 +9.2084533221e+02 9.2084620798e+02 1.2700000000e+00 0.0000e+00 -1.0000e+00
        4 -1    0    0  501    0 +0.0000000000e+00 -0.0000000000e+00 -4.2962067843e+01 4.2980834954e+01 1.2700000000e+00 0.0000e+00 -1.0000e+00
      -13  1    1    2    0    0 -4.8712256442e+01 +6.1713810154e+01 +1.5751011334e+02 1.7604239620e+02 1.0566000000e-01 0.0000e+00 -1.0000e+00
       13  1    1    2    0    0 +1.5763680933e+01 -3.5920448634e+01 +5.1930778799e+01 6.5081404543e+01 1.0566000000e-01 0.0000e+00 1.0000e+00
    10002  1    1    2    0    0 +7.5398180511e+01 +4.4665596720e+01 +2.3139071879e+02 2.6687368903e+02 1.0000000000e+02 0.0000e+00 0.0000e+00
   -10002  1    1    2    0    0 -4.2449605001e+01 -7.0458958240e+01 +4.3705165345e+02 4.5582955317e+02 1.0000000000e+02 0.0000e+00 0.0000e+00
<mgrwt>
<rscale>  0 0.39784864E+03</rscale>
<asrwt>0</asrwt>
<pdfrwt beam="1">  1        4 0.10742972E-01 0.39784864E+03</pdfrwt>
<pdfrwt beam="2">  1       -4 0.23021379E+00 0.39784864E+03</pdfrwt>
<totfact> 0.11726005E+01</totfact>
</mgrwt>
</event>
<event>
 6      1 +2.6141198e-09 4.55673000e+02 7.81860800e-03 1.02604400e-01
       -4 -1    0    0    0  501 -0.0000000000e+00 +0.0000000000e+00 +7.8532787913e+02 7.8532890602e+02 1.2700000000e+00 0.0000e+00 -1.0000e+00
        4 -1    0    0  501    0 +0.0000000000e+00 -0.0000000000e+00 -6.6091948840e+01 6.6104149654e+01 1.2700000000e+00 0.0000e+00 -1.0000e+00
      -13  1    1    2    0    0 -4.0365759140e+01 -5.0042850899e+01 +4.0443677298e+01 7.5956458807e+01 1.0566000000e-01 0.0000e+00 -1.0000e+00
       13  1    1    2    0    0 +1.4983690012e+01 +3.6258459701e+01 +7.5694711930e+01 8.5257770581e+01 1.0566000000e-01 0.0000e+00 1.0000e+00
    10002  1    1    2    0    0 +3.0026627437e+01 +6.3133560856e+01 +6.0366853382e+01 1.3613082623e+02 1.0000000000e+02 0.0000e+00 0.0000e+00
   -10002  1    1    2    0    0 -4.6445583088e+00 -4.9349169658e+01 +5.4273068768e+02 5.5408800006e+02 1.0000000000e+02 0.0000e+00 0.0000e+00
<mgrwt>
<rscale>  0 0.45567305E+03</rscale>
<asrwt>0</asrwt>
<pdfrwt beam="1">  1        4 0.16524641E-01 0.45567305E+03</pdfrwt>
<pdfrwt beam="2">  1       -4 0.19633362E+00 0.45567305E+03</pdfrwt>
<totfact> 0.90093322E+00</totfact>
</mgrwt>
</event>
<event>
 6      1 +2.6141198e-09 1.10142800e+03 7.81860800e-03 9.20380100e-02
        4 -1    0    0  501    0 +0.0000000000e+00 +0.0000000000e+00 +4.7391544045e+02 4.7391714212e+02 1.2700000000e+00 0.0000e+00 -1.0000e+00
       -4 -1    0    0    0  501 -0.0000000000e+00 -0.0000000000e+00 -6.3995437096e+02 6.3995563113e+02 1.2700000000e+00 0.0000e+00 -1.0000e+00
      -13  1    1    2    0    0 -3.6759948348e+01 -5.8519481208e+00 +3.4583032191e+00 3.7383286701e+01 1.0566000000e-01 0.0000e+00 -1.0000e+00
       13  1    1    2    0    0 -8.1995793892e+01 +1.3734005477e+02 -7.4981187873e+01 1.7665726863e+02 1.0566000000e-01 0.0000e+00 1.0000e+00
    10002  1    1    2    0    0 -7.6043744407e+01 +1.3425427078e+02 -3.9954584784e+02 4.3982240144e+02 1.0000000000e+02 0.0000e+00 0.0000e+00
   -10002  1    1    2    0    0 +1.9479948665e+02 -2.6574237743e+02 +3.0502980198e+02 4.6000981647e+02 1.0000000000e+02 0.0000e+00 0.0000e+00
<mgrwt>
<rscale>  0 0.11014280E+04</rscale>
<asrwt>0</asrwt>
<pdfrwt beam="1">  1        4 0.11847923E+00 0.11014280E+04</pdfrwt>
<pdfrwt beam="2">  1       -4 0.15998896E+00 0.11014280E+04</pdfrwt>
<totfact> 0.26344662E-01</totfact>
</mgrwt>
</event>
<event>
 6      1 +2.6141198e-09 4.78584300e+02 7.81860800e-03 1.01952500e-01
       -4 -1    0    0    0  501 -0.0000000000e+00 +0.0000000000e+00 +1.7066896821e+02 1.7067369337e+02 1.2700000000e+00 0.0000e+00 1.0000e+00
        4 -1    0    0  501    0 +0.0000000000e+00 -0.0000000000e+00 -3.3549708067e+02 3.3549948440e+02 1.2700000000e+00 0.0000e+00 1.0000e+00
      -13  1    1    2    0    0 +4.7478982488e+01 -4.3707347435e+00 -1.5056281787e+01 5.0000598852e+01 1.0566000000e-01 0.0000e+00 -1.0000e+00
       13  1    1    2    0    0 -5.4816708790e+01 -2.3851553857e+01 +4.0644870881e+00 5.9919107164e+01 1.0566000000e-01 0.0000e+00 1.0000e+00
    10002  1    1    2    0    0 -2.0194039190e+01 +1.5051980074e+02 -1.5021100769e+02 2.3585452395e+02 1.0000000000e+02 0.0000e+00 0.0000e+00
   -10002  1    1    2    0    0 +2.7531765493e+01 -1.2229751214e+02 -3.6253100644e+00 1.6039894781e+02 1.0000000000e+02 0.0000e+00 0.0000e+00
<mgrwt>
<rscale>  0 0.47858435E+03</rscale>
<asrwt>0</asrwt>
<pdfrwt beam="1">  1        4 0.83875160E-01 0.47858435E+03</pdfrwt>
<pdfrwt beam="2">  1       -4 0.42668134E-01 0.47858435E+03</pdfrwt>
<totfact> 0.12934787E+01</totfact>
</mgrwt>
</event>
<event>
 6      1 +2.6141198e-09 3.68434900e+02 7.81860800e-03 1.05529300e-01
       -4 -1    0    0    0  501 -0.0000000000e+00 +0.0000000000e+00 +2.7134777699e+02 2.7135074899e+02 1.2700000000e+00 0.0000e+00 -1.0000e+00
        4 -1    0    0  501    0 +0.0000000000e+00 -0.0000000000e+00 -1.2505796681e+02 1.2506441525e+02 1.2700000000e+00 0.0000e+00 -1.0000e+00
      -13  1    1    2    0    0 -3.3289579294e+01 -1.1425619110e+00 +5.0624658437e-01 3.3313195387e+01 1.0566000000e-01 0.0000e+00 -1.0000e+00
       13  1    1    2    0    0 +7.3811569355e+01 -3.9124012059e-02 -1.6606903481e+01 7.5656788913e+01 1.0566000000e-01 0.0000e+00 1.0000e+00
    10002  1    1    2    0    0 -3.6862014545e+01 +4.7570845302e+01 +4.1677274371e+01 1.2393057992e+02 1.0000000000e+02 0.0000e+00 0.0000e+00
   -10002  1    1    2    0    0 -3.6599755161e+00 -4.6389159379e+01 +1.2071319271e+02 1.6351460003e+02 1.0000000000e+02 0.0000e+00 0.0000e+00
<mgrwt>
<rscale>  0 0.36843490E+03</rscale>
<asrwt>0</asrwt>
<pdfrwt beam="1">  1        4 0.31265669E-01 0.36843490E+03</pdfrwt>
<pdfrwt beam="2">  1       -4 0.67838121E-01 0.36843490E+03</pdfrwt>
<totfact> 0.37831250E+01</totfact>
</mgrwt>
</event>
<event>
 6      1 +2.6141198e-09 3.75722200e+02 7.81860800e-03 1.05252600e-01
       -4 -1    0    0    0  501 -0.0000000000e+00 +0.0000000000e+00 +1.7276825263e+02 1.7277292038e+02 1.2700000000e+00 0.0000e+00 1.0000e+00
        4 -1    0    0  501    0 +0.0000000000e+00 -0.0000000000e+00 -2.0426308574e+02 2.0426703380e+02 1.2700000000e+00 0.0000e+00 1.0000e+00
      -13  1    1    2    0    0 -4.3929083431e+01 -1.5606639537e+01 -4.9707481912e+01 6.8148195066e+01 1.0566000000e-01 0.0000e+00 -1.0000e+00
       13  1    1    2    0    0 +5.5281322994e+01 -9.3490706311e+00 -2.2800597660e+01 6.0525269196e+01 1.0566000000e-01 0.0000e+00 1.0000e+00
    10002  1    1    2    0    0 -3.7934690270e+01 -4.8992516483e+01 +2.3833017315e+01 1.2003049659e+02 1.0000000000e+02 0.0000e+00 0.0000e+00
   -10002  1    1    2    0    0 +2.6582450707e+01 +7.3948226650e+01 +1.7180229144e+01 1.2833599333e+02 1.0000000000e+02 0.0000e+00 0.0000e+00
<mgrwt>
<rscale>  0 0.37572224E+03</rscale>
<asrwt>0</asrwt>
<pdfrwt beam="1">  1        4 0.51066848E-01 0.37572224E+03</pdfrwt>
<pdfrwt beam="2">  1       -4 0.43193140E-01 0.37572224E+03</pdfrwt>
<totfact> 0.36625000E+01</totfact>
</mgrwt>
</event>
<event>
 6      1 +2.6141198e-09 5.01475300e+02 7.81860800e-03 1.01339500e-01
       -4 -1    0    0    0  501 -0.0000000000e+00 +0.0000000000e+00 +2.3156537125e+02 2.3156885383e+02 1.2700000000e+00 0.0000e+00 1.0000e+00
        4 -1    0    0  501    0 +0.0000000000e+00 -0.0000000000e+00 -2.7149028744e+02 2.7149325788e+02 1.2700000000e+00 0.0000e+00 1.0000e+00
      -13  1    1    2    0    0 -1.7592931968e+01 -1.2411519986e+01 +1.3428305820e+01 2.5374941277e+01 1.0566000000e-01 0.0000e+00 -1.0000e+00
       13  1    1    2    0    0 +1.0435561349e+01 +1.2713719339e+02 -2.8096586067e+01 1.3062234187e+02 1.0566000000e-01 0.0000e+00 1.0000e+00
    10002  1    1    2    0    0 -7.9840860537e+01 -1.9454616749e+01 -1.0380329306e+02 1.6591614983e+02 1.0000000000e+02 0.0000e+00 0.0000e+00
   -10002  1    1    2    0    0 +8.6998231156e+01 -9.5271056651e+01 +7.8546657123e+01 1.8114867873e+02 1.0000000000e+02 0.0000e+00 0.0000e+00
<mgrwt>
<rscale>  0 0.50147531E+03</rscale>
<asrwt>0</asrwt>
<pdfrwt beam="1">  1        4 0.67873378E-01 0.50147531E+03</pdfrwt>
<pdfrwt beam="2">  1       -4 0.57892149E-01 0.50147531E+03</pdfrwt>
<totfact> 0.11036436E+01</totfact>
</mgrwt>
</event>
<event>
 6      1 +2.6141198e-09 4.78159500e+02 7.81860800e-03 1.01964200e-01
       -4 -1    0    0    0  501 -0.0000000000e+00 +0.0000000000e+00 +1.4272201430e+02 1.4272766468e+02 1.2700000000e+00 0.0000e+00 -1.0000e+00
        4 -1    0    0  501    0 +0.0000000000e+00 -0.0000000000e+00 -4.0047804634e+02 4.0048006006e+02 1.2700000000e+00 0.0000e+00 -1.0000e+00
      -13  1    1    2    0    0 -1.2903916406e+01 -3.9235449146e+01 -1.9696966275e+01 4.5759296025e+01 1.0566000000e-01 0.0000e+00 -1.0000e+00
       13  1    1    2    0    0 -5.2424906010e+01 +5.0371707437e+01 -4.5312692227e+00 7.2843827777e+01 1.0566000000e-01 0.0000e+00 1.0000e+00
    10002  1    1    2    0    0 +1.3392903658e+02 -2.2616761350e+00 -2.5120031312e+02 3.0173448482e+02 1.0000000000e+02 0.0000e+00 0.0000e+00
   -10002  1    1    2    0    0 -6.8600214165e+01 -8.8745821568e+00 +1.7672516574e+01 1.2287011611e+02 1.0000000000e+02 0.0000e+00 0.0000e+00
<mgrwt>
<rscale>  0 0.47815945E+03</rscale>
<asrwt>0</asrwt>
<pdfrwt beam="1">  1        4 0.10012047E+00 0.47815945E+03</pdfrwt>
<pdfrwt beam="2">  1       -4 0.35681462E-01 0.47815945E+03</pdfrwt>
<totfact> 0.12259191E+01</totfact>
</mgrwt>
</event>
<event>
 6      1 +2.6141198e-09 5.40122400e+02 7.81860800e-03 1.00380600e-01
       -4 -1    0    0    0  501 -0.0000000000e+00 +0.0000000000e+00 +3.4691896003e+02 3.4692128462e+02 1.2700000000e+00 0.0000e+00 1.0000e+00
        4 -1    0    0  501    0 +0.0000000000e+00 -0.0000000000e+00 -2.1022587775e+02 2.1022971382e+02 1.2700000000e+00 0.0000e+00 1.0000e+00
      -13  1    1    2    0    0 -6.2918967627e+01 +8.1711131838e+01 +1.1802467920e+02 1.5673334559e+02 1.0566000000e-01 0.0000e+00 1.0000e+00
       13  1    1    2    0    0 -9.9963328859e+00 -2.0323697629e+01 -3.5392325440e+00 2.2924150748e+01 1.0566000000e-01 0.0000e+00 -1.0000e+00
    10002  1    1    2    0    0 +1.3536201010e+02 -2.6381673453e+01 +1.2973921531e+02 2.1412877075e+02 1.0000000000e+02 0.0000e+00 0.0000e+00
   -10002  1    1    2    0    0 -6.2446709587e+01 -3.5005760756e+01 -1.0753157969e+02 1.6336473137e+02 1.0000000000e+02 0.0000e+00 0.0000e+00
<mgrwt>
<rscale>  0 0.54012243E+03</rscale>
<asrwt>0</asrwt>
<pdfrwt beam="1">  1        4 0.52557240E-01 0.54012243E+03</pdfrwt>
<pdfrwt beam="2">  1       -4 0.86730510E-01 0.54012243E+03</pdfrwt>
<totfact> 0.78258960E+00</totfact>
</mgrwt>
</event>
<event>
 6      1 +2.6141198e-09 5.39673200e+02 7.81860800e-03 1.00391300e-01
        4 -1    0    0  501    0 +0.0000000000e+00 +0.0000000000e+00 +4.7740414088e+02 4.7740583012e+02 1.2700000000e+00 0.0000e+00 1.0000e+00
       -4 -1    0    0    0  501 -0.0000000000e+00 -0.0000000000e+00 -1.5251142357e+02 1.5251671128e+02 1.2700000000e+00 0.0000e+00 1.0000e+00
      -13  1    1    2    0    0 +5.7665875589e+01 +1.0759418739e+01 -9.2762316669e+00 5.9390049141e+01 1.0566000000e-01 0.0000e+00 -1.0000e+00
       13  1    1    2    0    0 +8.4261379671e+00 -1.0011794180e+01 +7.0760171105e+01 7.1960050046e+01 1.0566000000e-01 0.0000e+00 1.0000e+00
    10002  1    1    2    0    0 -1.7320982856e+02 +1.4158367413e+01 +4.3333050881e+00 2.0055144380e+02 1.0000000000e+02 0.0000e+00 0.0000e+00
   -10002  1    1    2    0    0 +1.0711781501e+02 -1.4905991971e+01 +2.5907547279e+02 2.9802099840e+02 1.0000000000e+02 0.0000e+00 0.0000e+00
<mgrwt>
<rscale>  0 0.53967317E+03</rscale>
<asrwt>0</asrwt>
<pdfrwt beam="1">  1        4 0.11935191E+00 0.53967317E+03</pdfrwt>
<pdfrwt beam="2">  1       -4 0.38128728E-01 0.53967317E+03</pdfrwt>
<totfact> 0.70525953E+00</totfact>
</mgrwt>
</event>
<event>
 6      1 +2.6141198e-09 4.38127300e+02 7.81860800e-03 1.03132300e-01
        4 -1    0    0  501    0 +0.0000000000e+00 +0.0000000000e+00 +2.2050800419e+02 2.2051166140e+02 1.2700000000e+00 0.0000e+00 1.0000e+00
       -4 -1    0    0    0  501 -0.0000000000e+00 -0.0000000000e+00 -2.1762145279e+02 2.1762515851e+02 1.2700000000e+00 0.0000e+00 1.0000e+00
      -13  1    1    2    0    0 +1.2279740049e+01 -2.8847727853e+01 +3.5063474708e+01 4.7036601074e+01 1.0566000000e-01 0.0000e+00 -1.0000e+00
       13  1    1    2    0    0 +6.0174983333e+01 +4.4243746880e+01 -1.7491160335e+01 7.6710427003e+01 1.0566000000e-01 0.0000e+00 1.0000e+00
    10002  1    1    2    0    0 -9.6907150721e+01 +4.2429338246e+01 +7.7198893387e+01 1.6477534326e+02 1.0000000000e+02 0.0000e+00 0.0000e+00
   -10002  1    1    2    0    0 +2.4452427339e+01 -5.7825357274e+01 -9.1884656361e+01 1.4961444857e+02 1.0000000000e+02 0.0000e+00 0.0000e+00
<mgrwt>
<rscale>  0 0.43812731E+03</rscale>
<asrwt>0</asrwt>
<pdfrwt beam="1">  1        4 0.55127921E-01 0.43812731E+03</pdfrwt>
<pdfrwt beam="2">  1       -4 0.54406284E-01 0.43812731E+03</pdfrwt>
<totfact> 0.19567814E+01</totfact>
</mgrwt>
</event>
<event>
 6      1 +2.6141198e-09 4.75287700e+02 7.81860800e-03 1.02043800e-01
        4 -1    0    0  501    0 +0.0000000000e+00 +0.0000000000e+00 +1.3199903534e+02 1.3200514471e+02 1.2700000000e+00 0.0000e+00 -1.0000e+00
       -4 -1    0    0    0  501 -0.0000000000e+00 -0.0000000000e+00 -4.2782400804e+02 4.2782589303e+02 1.2700000000e+00 0.0000e+00 -1.0000e+00
      -13  1    1    2    0    0 -4.8210623561e+00 -6.0429488650e+01 -1.1516623050e+02 1.3014698441e+02 1.0566000000e-01 0.0000e+00 1.0000e+00
       13  1    1    2    0    0 -4.1737380738e+01 -5.7353908397e+01 -1.3880541383e+02 1.5587954911e+02 1.0566000000e-01 0.0000e+00 -1.0000e+00
    10002  1    1    2    0    0 +2.6584905323e+01 -3.1373758399e+00 +1.7240852590e+01 1.0494687854e+02 1.0000000000e+02 0.0000e+00 0.0000e+00
   -10002  1    1    2    0    0 +1.9973537771e+01 +1.2092077289e+02 -5.9094180954e+01 1.6885762568e+02 1.0000000000e+02 0.0000e+00 0.0000e+00
<mgrwt>
<rscale>  0 0.47528768E+03</rscale>
<asrwt>0</asrwt>
<pdfrwt beam="1">  1        4 0.33000759E-01 0.47528768E+03</pdfrwt>
<pdfrwt beam="2">  1       -4 0.10695700E+00 0.47528768E+03</pdfrwt>
<totfact> 0.12198236E+01</totfact>
</mgrwt>
</event>
<event>
 6      1 +2.6141198e-09 3.78309400e+02 7.81860800e-03 1.05156000e-01
       -4 -1    0    0    0  501 -0.0000000000e+00 +0.0000000000e+00 +1.9999159556e+02 1.9999562794e+02 1.2700000000e+00 0.0000e+00 1.0000e+00
        4 -1    0    0  501    0 +0.0000000000e+00 -0.0000000000e+00 -1.7889694066e+02 1.7890144851e+02 1.2700000000e+00 0.0000e+00 1.0000e+00
      -13  1    1    2    0    0 +1.4951366395e+01 -4.8289344395e+01 +3.3117213223e+01 6.0433145830e+01 1.0566000000e-01 0.0000e+00 -1.0000e+00
       13  1    1    2    0    0 -3.1442951509e+01 +1.4731067291e+01 -2.6171430812e+01 4.3481243059e+01 1.0566000000e-01 0.0000e+00 1.0000e+00
    10002  1    1    2    0    0 +1.5030895132e+00 +5.5037834737e+01 +9.1151171046e+01 1.4608202666e+02 1.0000000000e+02 0.0000e+00 0.0000e+00
   -10002  1    1    2    0    0 +1.4988495601e+01 -2.1479557632e+01 -7.7002298561e+01 1.2890066090e+02 1.0000000000e+02 0.0000e+00 0.0000e+00
<mgrwt>
<rscale>  0 0.37830941E+03</rscale>
<asrwt>0</asrwt>
<pdfrwt beam="1">  1        4 0.44725303E-01 0.37830941E+03</pdfrwt>
<pdfrwt beam="2">  1       -4 0.49998966E-01 0.37830941E+03</pdfrwt>
<totfact> 0.35670923E+01</totfact>
</mgrwt>
</event>
<event>
 6      1 +2.6141198e-09 3.79261900e+02 7.81860800e-03 1.05120700e-01
       -4 -1    0    0    0  501 -0.0000000000e+00 +0.0000000000e+00 +8.0116227001e+01 8.0126292369e+01 1.2700000000e+00 0.0000e+00 1.0000e+00
        4 -1    0    0  501    0 +0.0000000000e+00 -0.0000000000e+00 -4.4880741018e+02 4.4880920705e+02 1.2700000000e+00 0.0000e+00 1.0000e+00
      -13  1    1    2    0    0 -6.7514109213e+01 -7.3561719718e+00 -7.7771120678e+01 1.0325031034e+02 1.0566000000e-01 0.0000e+00 -1.0000e+00
       13  1    1    2    0    0 +3.2091913432e+01 +1.8668370967e+01 -4.6207299009e+01 5.9274991590e+01 1.0566000000e-01 0.0000e+00 1.0000e+00
    10002  1    1    2    0    0 +2.6290705232e+01 +6.3408578524e+01 -1.9920815121e+02 2.3322893585e+02 1.0000000000e+02 0.0000e+00 0.0000e+00
   -10002  1    1    2    0    0 +9.1314905491e+00 -7.4720777519e+01 -4.5504612285e+01 1.3318126164e+02 1.0000000000e+02 0.0000e+00 0.0000e+00
<mgrwt>
<rscale>  0 0.37926188E+03</rscale>
<asrwt>0</asrwt>
<pdfrwt beam="1">  1        4 0.11220333E+00 0.37926188E+03</pdfrwt>
<pdfrwt beam="2">  1       -4 0.20030541E-01 0.37926188E+03</pdfrwt>
<totfact> 0.27565386E+01</totfact>
</mgrwt>
</event>
<event>
 6      1 +2.6141198e-09 4.02292200e+02 7.81860800e-03 1.04298900e-01
        4 -1    0    0  501    0 +0.0000000000e+00 +0.0000000000e+00 +4.5937190601e+01 4.5954742741e+01 1.2700000000e+00 0.0000e+00 1.0000e+00
       -4 -1    0    0    0  501 -0.0000000000e+00 -0.0000000000e+00 -8.8057644242e+02 8.8057735824e+02 1.2700000000e+00 0.0000e+00 1.0000e+00
      -13  1    1    2    0    0 +5.0560851364e+00 +3.5670083711e+01 -1.2924222432e+02 1.3416960378e+02 1.0566000000e-01 0.0000e+00 1.0000e+00
       13  1    1    2    0    0 -3.9322313011e+00 -5.4033709841e+01 -4.9039574017e+01 7.3075270961e+01 1.0566000000e-01 0.0000e+00 -1.0000e+00
    10002  1    1    2    0    0 +9.7608467911e+01 -2.8630957666e+01 -2.6752900608e+02 3.0318132172e+02 1.0000000000e+02 0.0000e+00 0.0000e+00
   -10002  1    1    2    0    0 -9.8732321747e+01 +4.6994583796e+01 -3.8882844741e+02 4.1610590452e+02 1.0000000000e+02 0.0000e+00 0.0000e+00
<mgrwt>
<rscale>  0 0.40229225E+03</rscale>
<asrwt>0</asrwt>
<pdfrwt beam="1">  1        4 0.11486609E-01 0.40229225E+03</pdfrwt>
<pdfrwt beam="2">  1       -4 0.22014636E+00 0.40229225E+03</pdfrwt>
<totfact> 0.12047908E+01</totfact>
</mgrwt>
</event>
<event>
 6      1 +2.6141198e-09 3.55616600e+02 7.81860800e-03 1.06033300e-01
       -4 -1    0    0    0  501 -0.0000000000e+00 +0.0000000000e+00 +1.3202793347e+02 1.3203404151e+02 1.2700000000e+00 0.0000e+00 1.0000e+00
        4 -1    0    0  501    0 +0.0000000000e+00 -0.0000000000e+00 -2.3944955619e+02 2.3945292410e+02 1.2700000000e+00 0.0000e+00 1.0000e+00
      -13  1    1    2    0    0 -2.0538496885e+01 +4.5379412045e+01 -6.6106296987e-01 4.9815349644e+01 1.0566000000e-01 0.0000e+00 1.0000e+00
       13  1    1    2    0    0 +3.3355251292e+01 -1.4486368363e+01 -6.2036310922e+01 7.1909267093e+01 1.0566000000e-01 0.0000e+00 -1.0000e+00
    10002  1    1    2    0    0 +5.9370158350e+01 -3.0830770310e+01 -3.8299432304e+01 1.2626241965e+02 1.0000000000e+02 0.0000e+00 0.0000e+00
   -10002  1    1    2    0    0 -7.2186912756e+01 -6.2273371710e-02 -6.4248165285e+00 1.2349992923e+02 1.0000000000e+02 0.0000e+00 0.0000e+00
<mgrwt>
<rscale>  0 0.35561659E+03</rscale>
<asrwt>0</asrwt>
<pdfrwt beam="1">  1        4 0.59863573E-01 0.35561659E+03</pdfrwt>
<pdfrwt beam="2">  1       -4 0.33008168E-01 0.35561659E+03</pdfrwt>
<totfact> 0.44489296E+01</totfact>
</mgrwt>
</event>
<event>
 6      1 +2.6141198e-09 5.78455800e+02 7.81860800e-03 9.95114000e-02
       -4 -1    0    0    0  501 -0.0000000000e+00 +0.0000000000e+00 +4.9202300913e+02 4.9202464817e+02 1.2700000000e+00 0.0000e+00 1.0000e+00
        4 -1    0    0  501    0 +0.0000000000e+00 -0.0000000000e+00 -1.7001372147e+02 1.7001846484e+02 1.2700000000e+00 0.0000e+00 1.0000e+00
      -13  1    1    2    0    0 +9.1702026016e+01 -7.1468814198e+01 -4.8087784922e+01 1.2581533770e+02 1.0566000000e-01 0.0000e+00 1.0000e+00
       13  1    1    2    0    0 -1.1421992929e+01 -1.6271448781e+00 +1.7306230861e+01 2.0799670996e+01 1.0566000000e-01 0.0000e+00 -1.0000e+00
    10002  1    1    2    0    0 -6.3245791888e+00 -5.3644577632e+01 +3.1362761636e+02 3.3358660458e+02 1.0000000000e+02 0.0000e+00 0.0000e+00
   -10002  1    1    2    0    0 -7.3955453899e+01 +1.2674053671e+02 +3.9163225368e+01 1.8184149974e+02 1.0000000000e+02 0.0000e+00 0.0000e+00
<mgrwt>
<rscale>  0 0.57845579E+03</rscale>
<asrwt>0</asrwt>
<pdfrwt beam="1">  1        4 0.42504229E-01 0.57845579E+03</pdfrwt>
<pdfrwt beam="2">  1       -4 0.12300655E+00 0.57845579E+03</pdfrwt>
<totfact> 0.52643604E+00</totfact>
</mgrwt>
</event>
<event>
 6      1 +2.6141198e-09 5.97547100e+02 7.81860800e-03 9.91050800e-02
        4 -1    0    0  501    0 +0.0000000000e+00 +0.0000000000e+00 +9.2974775338e+02 9.2974862077e+02 1.2700000000e+00 0.0000e+00 1.0000e+00
       -4 -1    0    0    0  501 -0.0000000000e+00 -0.0000000000e+00 -9.6005481392e+01 9.6013881066e+01 1.2700000000e+00 0.0000e+00 1.0000e+00
      -13  1    1    2    0    0 +6.4959638881e+00 -5.2304830671e+01 +1.7416526493e+02 1.8196577571e+02 1.0566000000e-01 0.0000e+00 -1.0000e+00
       13  1    1    2    0    0 +2.5444920239e+01 +3.4303771506e+01 +6.2656140280e+01 7.5828726643e+01 1.0566000000e-01 0.0000e+00 1.0000e+00
    10002  1    1    2    0    0 -7.2241815520e+01 -1.4799244456e+02 +6.9818904991e+01 2.0492760441e+02 1.0000000000e+02 0.0000e+00 0.0000e+00
   -10002  1    1    2    0    0 +4.0300931393e+01 +1.6599350373e+02 +5.2710196179e+02 5.6304039506e+02 1.0000000000e+02 0.0000e+00 0.0000e+00
<mgrwt>
<rscale>  0 0.59754710E+03</rscale>
<asrwt>0</asrwt>
<pdfrwt beam="1">  1        4 0.23243810E+00 0.59754710E+03</pdfrwt>
<pdfrwt beam="2">  1       -4 0.24002529E-01 0.59754710E+03</pdfrwt>
<totfact> 0.26890194E+00</totfact>
</mgrwt>
</event>
<event>
 6      1 +2.6141198e-09 3.86666400e+02 7.81860800e-03 1.04849700e-01
       -4 -1    0    0    0  501 -0.0000000000e+00 +0.0000000000e+00 +1.9560005459e+02 1.9560417750e+02 1.2700000000e+00 0.0000e+00 1.0000e+00
        4 -1    0    0  501    0 +0.0000000000e+00 -0.0000000000e+00 -1.9108434936e+02 1.9108856970e+02 1.2700000000e+00 0.0000e+00 1.0000e+00
      -13  1    1    2    0    0 +2.7156594651e+01 -1.5270370139e+01 +4.7644481892e+01 5.6926906257e+01 1.0566000000e-01 0.0000e+00 -1.0000e+00
       13  1    1    2    0    0 -2.9288645610e+01 -1.3816499421e+01 -1.3651520661e+01 3.5143926905e+01 1.0566000000e-01 0.0000e+00 1.0000e+00
    10002  1    1    2    0    0 +4.2555664147e+01 -8.1897829674e+01 +4.5672220704e+00 1.3615835844e+02 1.0000000000e+02 0.0000e+00 0.0000e+00
   -10002  1    1    2    0    0 -4.0423613189e+01 +1.1098469923e+02 -3.4044478072e+01 1.5846355560e+02 1.0000000000e+02 0.0000e+00 0.0000e+00
<mgrwt>
<rscale>  0 0.38666638E+03</rscale>
<asrwt>0</asrwt>
<pdfrwt beam="1">  1        4 0.47772130E-01 0.38666638E+03</pdfrwt>
<pdfrwt beam="2">  1       -4 0.48901057E-01 0.38666638E+03</pdfrwt>
<totfact> 0.32686883E+01</totfact>
</mgrwt>
</event>
<event>
 6      1 +2.6141198e-09 3.70976600e+02 7.81860800e-03 1.05432000e-01
        4 -1    0    0  501    0 +0.0000000000e+00 +0.0000000000e+00 +2.4777986490e+02 2.4778311958e+02 1.2700000000e+00 0.0000e+00 1.0000e+00
       -4 -1    0    0    0  501 -0.0000000000e+00 -0.0000000000e+00 -1.3884966180e+02 1.3885546976e+02 1.2700000000e+00 0.0000e+00 1.0000e+00
      -13  1    1    2    0    0 -4.9709093874e+01 -8.6482768384e+00 -2.1153080520e+01 5.4710608528e+01 1.0566000000e-01 0.0000e+00 -1.0000e+00
       13  1    1    2    0    0 -1.6903648114e+00 +7.0088286051e+01 -5.5592784611e+00 7.0328812842e+01 1.0566000000e-01 0.0000e+00 1.0000e+00
    10002  1    1    2    0    0 +3.9298175910e+01 -2.1825763520e+01 +9.7845075958e+01 1.4695022787e+02 1.0000000000e+02 0.0000e+00 0.0000e+00
   -10002  1    1    2    0    0 +1.2101282775e+01 -3.9614245693e+01 +3.7797486124e+01 1.1464894009e+02 1.0000000000e+02 0.0000e+00 0.0000e+00
<mgrwt>
<rscale>  0 0.37097656E+03</rscale>
<asrwt>0</asrwt>
<pdfrwt beam="1">  1        4 0.61946099E-01 0.37097656E+03</pdfrwt>
<pdfrwt beam="2">  1       -4 0.34713548E-01 0.37097656E+03</pdfrwt>
<totfact> 0.37596499E+01</totfact>
</mgrwt>
</event>
<event>
 6      1 +2.6141198e-09 4.17186300e+02 7.81860800e-03 1.03798600e-01
       -4 -1    0    0    0  501 -0.0000000000e+00 +0.0000000000e+00 +1.8496450610e+02 1.8496886607e+02 1.2700000000e+00 0.0000e+00 1.0000e+00
        4 -1    0    0  501    0 +0.0000000000e+00 -0.0000000000e+00 -2.3523145250e+02 2.3523488080e+02 1.2700000000e+00 0.0000e+00 1.0000e+00
      -13  1    1    2    0    0 +8.6894694819e+00 +2.7609198355e+01 -1.4873408809e+01 3.2542344220e+01 1.0566000000e-01 0.0000e+00 -1.0000e+00
       13  1    1    2    0    0 -8.1154707293e+01 -5.5168020070e+00 +7.7591206079e+01 1.1241409184e+02 1.0566000000e-01 0.0000e+00 1.0000e+00
    10002  1    1    2    0    0 -1.3425375693e+01 +2.6216196755e+01 -1.8130692395e+01 1.0581234187e+02 1.0000000000e+02 0.0000e+00 0.0000e+00
   -10002  1    1    2    0    0 +8.5890613504e+01 -4.8308593103e+01 -9.4854051280e+01 1.6943496894e+02 1.0000000000e+02 0.0000e+00 0.0000e+00
<mgrwt>
<rscale>  0 0.41718632E+03</rscale>
<asrwt>0</asrwt>
<pdfrwt beam="1">  1        4 0.58808837E-01 0.41718632E+03</pdfrwt>
<pdfrwt beam="2">  1       -4 0.46242100E-01 0.41718632E+03</pdfrwt>
<totfact> 0.23848761E+01</totfact>
</mgrwt>
</event>
<event>
 6      1 +2.6141198e-09 1.00348500e+03 7.81860800e-03 9.30473000e-02
        4 -1    0    0  501    0 +0.0000000000e+00 +0.0000000000e+00 +1.4511587504e+03 1.4511593062e+03 1.2700000000e+00 0.0000e+00 -1.0000e+00
       -4 -1    0    0    0  501 -0.0000000000e+00 -0.0000000000e+00 -1.7347621258e+02 1.7348086129e+02 1.2700000000e+00 0.0000e+00 -1.0000e+00
      -13  1    1    2    0    0 -4.0879531091e+01 -1.9968965066e+01 +1.0315247418e+02 1.1274014246e+02 1.0566000000e-01 0.0000e+00 -1.0000e+00
       13  1    1    2    0    0 +2.5544621276e+01 +1.3492169594e+00 -9.4128006667e+00 2.7257293390e+01 1.0566000000e-01 0.0000e+00 1.0000e+00
    10002  1    1    2    0    0 -3.3754793619e+02 -5.5607885353e+00 +1.4179751223e+02 3.7957353183e+02 1.0000000000e+02 0.0000e+00 0.0000e+00
   -10002  1    1    2    0    0 +3.5288284600e+02 +2.4180536642e+01 +1.0421453521e+03 1.1050691998e+03 1.0000000000e+02 0.0000e+00 0.0000e+00
<mgrwt>
<rscale>  0 0.10034854E+04</rscale>
<asrwt>0</asrwt>
<pdfrwt beam="1">  1        4 0.36279033E+00 0.10034854E+04</pdfrwt>
<pdfrwt beam="2">  1       -4 0.43369704E-01 0.10034854E+04</pdfrwt>
<totfact> 0.12694074E-01</totfact>
</mgrwt>
</event>
<event>
 6      1 +2.6141198e-09 5.70496700e+02 7.81860800e-03 9.96858000e-02
        4 -1    0    0  501    0 +0.0000000000e+00 +0.0000000000e+00 +3.4814582989e+02 3.4814814629e+02 1.2700000000e+00 0.0000e+00 -1.0000e+00
       -4 -1    0    0    0  501 -0.0000000000e+00 -0.0000000000e+00 -2.3370938645e+02 2.3371283708e+02 1.2700000000e+00 0.0000e+00 -1.0000e+00
      -13  1    1    2    0    0 -5.5912015074e+01 -5.4066710068e+01 -1.4635065532e+01 7.9142648897e+01 1.0566000000e-01 0.0000e+00 -1.0000e+00
       13  1    1    2    0    0 +4.0167907001e+01 -4.7610451164e+00 -8.2509852042e+00 4.1282178048e+01 1.0566000000e-01 0.0000e+00 1.0000e+00
    10002  1    1    2    0    0 +1.2901373223e+01 +1.0772653569e+02 +2.5801344153e+02 2.9722447398e+02 1.0000000000e+02 0.0000e+00 0.0000e+00
   -10002  1    1    2    0    0 +2.8427348497e+00 -4.8898780505e+01 -1.2069094736e+02 1.6421168245e+02 1.0000000000e+02 0.0000e+00 0.0000e+00
<mgrwt>
<rscale>  0 0.57049672E+03</rscale>
<asrwt>0</asrwt>
<pdfrwt beam="1">  1        4 0.87037178E-01 0.57049672E+03</pdfrwt>
<pdfrwt beam="2">  1       -4 0.58428068E-01 0.57049672E+03</pdfrwt>
<totfact> 0.62108551E+00</totfact>
</mgrwt>
</event>
<event>
 6      1 +2.6141198e-09 4.16915900e+02 7.81860800e-03 1.03807500e-01
        4 -1    0    0  501    0 +0.0000000000e+00 +0.0000000000e+00 +5.1133301303e+02 5.1133459018e+02 1.2700000000e+00 0.0000e+00 -1.0000e+00
       -4 -1    0    0    0  501 -0.0000000000e+00 -0.0000000000e+00 -8.4976737625e+01 8.4986227339e+01 1.2700000000e+00 0.0000e+00 -1.0000e+00
      -13  1    1    2    0    0 +6.0589511775e+01 -7.0532184202e+00 +7.0678863126e+01 9.3361392899e+01 1.0566000000e-01 0.0000e+00 1.0000e+00
       13  1    1    2    0    0 -2.6246684797e+01 +2.1009156922e+01 +6.3396967381e+00 3.4212220860e+01 1.0566000000e-01 0.0000e+00 -1.0000e+00
    10002  1    1    2    0    0 -1.0180949402e+02 -8.3316471953e+01 +1.3587952843e+02 2.1393936949e+02 1.0000000000e+02 0.0000e+00 0.0000e+00
   -10002  1    1    2    0    0 +6.7466667037e+01 +6.9360533451e+01 +2.1345818711e+02 2.5480783427e+02 1.0000000000e+02 0.0000e+00 0.0000e+00
<mgrwt>
<rscale>  0 0.41691587E+03</rscale>
<asrwt>0</asrwt>
<pdfrwt beam="1">  1        4 0.12783464E+00 0.41691587E+03</pdfrwt>
<pdfrwt beam="2">  1       -4 0.21245568E-01 0.41691587E+03</pdfrwt>
<totfact> 0.18050478E+01</totfact>
</mgrwt>
</event>
<event>
 6      1 +2.6141198e-09 3.45120900e+02 7.81860800e-03 1.06463600e-01
       -4 -1    0    0    0  501 -0.0000000000e+00 +0.0000000000e+00 +2.6120745299e+02 2.6121054036e+02 1.2700000000e+00 0.0000e+00 -1.0000e+00
        4 -1    0    0  501    0 +0.0000000000e+00 -0.0000000000e+00 -1.1399065592e+02 1.1399773040e+02 1.2700000000e+00 0.0000e+00 -1.0000e+00
      -13  1    1    2    0    0 +3.9631384082e+00 +7.0951481438e+01 +1.7210793167e+01 7.3116631144e+01 1.0566000000e-01 0.0000e+00 1.0000e+00
       13  1    1    2    0    0 -4.9590936361e+01 -1.7895270429e+01 +4.8083265185e+00 5.2939898383e+01 1.0566000000e-01 0.0000e+00 -1.0000e+00
    10002  1    1    2    0    0 +3.0568469709e+01 -4.3574122195e+01 +7.4933136908e+01 1.3582382145e+02 1.0000000000e+02 0.0000e+00 0.0000e+00
   -10002  1    1    2    0    0 +1.5059328244e+01 -9.4820888146e+00 +5.0264540470e+01 1.1332791979e+02 1.0000000000e+02 0.0000e+00 0.0000e+00
<mgrwt>
<rscale>  0 0.34512094E+03</rscale>
<asrwt>0</asrwt>
<pdfrwt beam="1">  1        4 0.28498934E-01 0.34512094E+03</pdfrwt>
<pdfrwt beam="2">  1       -4 0.65303133E-01 0.34512094E+03</pdfrwt>
<totfact> 0.48846545E+01</totfact>
</mgrwt>
</event>
<event>
 6      1 +2.6141198e-09 5.14469200e+02 7.81860800e-03 1.01007000e-01
        4 -1    0    0  501    0 +0.0000000000e+00 +0.0000000000e+00 +4.8614720004e+01 4.8631305772e+01 1.2700000000e+00 0.0000e+00 1.0000e+00
       -4 -1    0    0    0  501 -0.0000000000e+00 -0.0000000000e+00 -1.3608537547e+03 1.3608543473e+03 1.2700000000e+00 0.0000e+00 1.0000e+00
      -13  1    1    2    0    0 +6.6874255283e+01 -1.9920741666e+01 -8.9406960913e+01 1.1341348153e+02 1.0566000000e-01 0.0000e+00 -1.0000e+00
       13  1    1    2    0    0 +9.7139959952e+00 -8.3744393572e+01 -1.8974949590e+02 2.0763517894e+02 1.0566000000e-01 0.0000e+00 1.0000e+00
    10002  1    1    2    0    0 -1.5428415794e+02 +7.4045100566e+01 -4.6182144466e+02 5.0255877772e+02 1.0000000000e+02 0.0000e+00 0.0000e+00
   -10002  1    1    2    0    0 +7.7695906662e+01 +2.9620034673e+01 -5.7126113322e+02 5.8587821489e+02 1.0000000000e+02 0.0000e+00 0.0000e+00
<mgrwt>
<rscale>  0 0.51446917E+03</rscale>
<asrwt>0</asrwt>
<pdfrwt beam="1">  1        4 0.12155832E-01 0.51446917E+03</pdfrwt>
<pdfrwt beam="2">  1       -4 0.34021546E+00 0.51446917E+03</pdfrwt>
<totfact> 0.20343072E+00</totfact>
</mgrwt>
</event>
<event>
 6      1 +2.6141198e-09 3.63297000e+02 7.81860800e-03 1.05728600e-01
       -4 -1    0    0    0  501 -0.0000000000e+00 +0.0000000000e+00 +6.5009279953e+01 6.5021683922e+01 1.2700000000e+00 0.0000e+00 -1.0000e+00
        4 -1    0    0  501    0 +0.0000000000e+00 -0.0000000000e+00 -5.0749953877e+02 5.0750112783e+02 1.2700000000e+00 0.0000e+00 -1.0000e+00
      -13  1    1    2    0    0 -3.2498838548e+01 +3.9606444292e+01 -3.4324784887e+01 6.1668849170e+01 1.0566000000e-01 0.0000e+00 1.0000e+00
       13  1    1    2    0    0 +4.8295830048e+01 -2.9285190509e+01 -1.2096598880e+02 1.3350240145e+02 1.0566000000e-01 0.0000e+00 -1.0000e+00
    10002  1    1    2    0    0 -7.2948463190e+00 +6.2306872570e+01 -1.6884029513e+02 2.0601554896e+02 1.0000000000e+02 0.0000e+00 0.0000e+00
   -10002  1    1    2    0    0 -8.5021451817e+00 -7.2628126353e+01 -1.1835919000e+02 1.7133601217e+02 1.0000000000e+02 0.0000e+00 0.0000e+00
<mgrwt>
<rscale>  0 0.36329704E+03</rscale>
<asrwt>0</asrwt>
<pdfrwt beam="1">  1        4 0.12687662E+00 0.36329704E+03</pdfrwt>
<pdfrwt beam="2">  1       -4 0.16254071E-01 0.36329704E+03</pdfrwt>
<totfact> 0.29661795E+01</totfact>
</mgrwt>
</event>
<event>
 6      1 +2.6141198e-09 6.03313300e+02 7.81860800e-03 9.89855600e-02
       -4 -1    0    0    0  501 -0.0000000000e+00 +0.0000000000e+00 +1.6801867413e+02 1.6802347382e+02 1.2700000000e+00 0.0000e+00 -1.0000e+00
        4 -1    0    0  501    0 +0.0000000000e+00 -0.0000000000e+00 -5.4157378593e+02 5.4157527502e+02 1.2700000000e+00 0.0000e+00 -1.0000e+00
      -13  1    1    2    0    0 +2.6164009498e+01 +9.5230220303e+01 -7.6034497538e+01 1.2463790046e+02 1.0566000000e-01 0.0000e+00 -1.0000e+00
       13  1    1    2    0    0 -3.5472276673e+01 +3.3988765533e+00 +4.6130301819e+00 3.5932241590e+01 1.0566000000e-01 0.0000e+00 1.0000e+00
    10002  1    1    2    0    0 +1.2328213149e+02 -2.1203311682e+02 -2.1232012718e+02 3.3946481847e+02 1.0000000000e+02 0.0000e+00 0.0000e+00
   -10002  1    1    2    0    0 -1.1397386432e+02 +1.1340401996e+02 -8.9813517267e+01 2.0956378832e+02 1.0000000000e+02 0.0000e+00 0.0000e+00
<mgrwt>
<rscale>  0 0.60331332E+03</rscale>
<asrwt>0</asrwt>
<pdfrwt beam="1">  1        4 0.13539423E+00 0.60331332E+03</pdfrwt>
<pdfrwt beam="2">  1       -4 0.42005456E-01 0.60331332E+03</pdfrwt>
<totfact> 0.42336549E+00</totfact>
</mgrwt>
</event>
<event>
 6      1 +2.6141198e-09 4.50295800e+02 7.81860800e-03 1.02763400e-01
        4 -1    0    0  501    0 +0.0000000000e+00 +0.0000000000e+00 +1.6338154556e+02 1.6338648148e+02 1.2700000000e+00 0.0000e+00 1.0000e+00
       -4 -1    0    0    0  501 -0.0000000000e+00 -0.0000000000e+00 -3.1025408095e+02 3.1025668027e+02 1.2700000000e+00 0.0000e+00 1.0000e+00
      -13  1    1    2    0    0 -1.6552723144e+01 -6.3805098870e+01 -3.1368606181e+01 7.3000574676e+01 1.0566000000e-01 0.0000e+00 -1.0000e+00
       13  1    1    2    0    0 +6.1588290893e+01 -2.1504861211e+01 +1.5286890918e+01 6.7002065854e+01 1.0566000000e-01 0.0000e+00 1.0000e+00
    10002  1    1    2    0    0 +3.2108151708e+01 -2.5454071559e+01 +1.7607278435e+01 1.0949365013e+02 1.0000000000e+02 0.0000e+00 0.0000e+00
   -10002  1    1    2    0    0 -7.7143719456e+01 +1.1076403164e+02 -1.4839809857e+02 2.2414687108e+02 1.0000000000e+02 0.0000e+00 0.0000e+00
<mgrwt>
<rscale>  0 0.45029580E+03</rscale>
<asrwt>0</asrwt>
<pdfrwt beam="1">  1        4 0.40846329E-01 0.45029580E+03</pdfrwt>
<pdfrwt beam="2">  1       -4 0.77564461E-01 0.45029580E+03</pdfrwt>
<totfact> 0.16814335E+01</totfact>
</mgrwt>
</event>
<event>
 6      1 +2.6141198e-09 5.28628100e+02 7.81860800e-03 1.00656500e-01
        4 -1    0    0  501    0 +0.0000000000e+00 +0.0000000000e+00 +8.2399493312e+01 8.2409279805e+01 1.2700000000e+00 0.0000e+00 1.0000e+00
       -4 -1    0    0    0  501 -0.0000000000e+00 -0.0000000000e+00 -8.4778355104e+02 8.4778450229e+02 1.2700000000e+00 0.0000e+00 1.0000e+00
      -13  1    1    2    0    0 +2.8053682290e+00 -1.4543917659e+01 +8.5867744983e+00 1.7121316891e+01 1.0566000000e-01 0.0000e+00 1.0000e+00
       13  1    1    2    0    0 +1.1891572815e+02 -2.0397978069e+01 -1.8182143197e+02 2.1821107259e+02 1.0566000000e-01 0.0000e+00 -1.0000e+00
    10002  1    1    2    0    0 -1.7714219470e+02 -2.9588205933e+01 -4.8012237690e+02 5.2227609161e+02 1.0000000000e+02 0.0000e+00 0.0000e+00
   -10002  1    1    2    0    0 +5.5421098320e+01 +6.4530101661e+01 -1.1202702335e+02 1.7258530100e+02 1.0000000000e+02 0.0000e+00 0.0000e+00
<mgrwt>
<rscale>  0 0.52862815E+03</rscale>
<asrwt>0</asrwt>
<pdfrwt beam="1">  1        4 0.20601218E-01 0.52862815E+03</pdfrwt>
<pdfrwt beam="2">  1       -4 0.21194720E+00 0.52862815E+03</pdfrwt>
<totfact> 0.47997178E+00</totfact>
</mgrwt>
</event>
<event>
 6      1 +2.6141198e-09 6.32824700e+02 7.81860800e-03 9.83955200e-02
       -4 -1    0    0    0  501 -0.0000000000e+00 +0.0000000000e+00 +6.7817178342e+02 6.7817297258e+02 1.2700000000e+00 0.0000e+00 -1.0000e+00
        4 -1    0    0  501    0 +0.0000000000e+00 -0.0000000000e+00 -1.4762340876e+02 1.4762887154e+02 1.2700000000e+00 0.0000e+00 -1.0000e+00
      -13  1    1    2    0    0 -7.8068715295e-01 +3.4280265746e+01 -6.2618562017e+01 7.1392167394e+01 1.0566000000e-01 0.0000e+00 -1.0000e+00
       13  1    1    2    0    0 -3.9289862921e+00 -4.1291346053e+01 +1.3735709055e+01 4.3693169482e+01 1.0566000000e-01 0.0000e+00 1.0000e+00
    10002  1    1    2    0    0 -5.6519846613e+01 -7.3427683978e+01 +2.5334046370e+01 1.3866481796e+02 1.0000000000e+02 0.0000e+00 0.0000e+00
   -10002  1    1    2    0    0 +6.1229520058e+01 +8.0438764285e+01 +5.5409718126e+02 5.7205168928e+02 1.0000000000e+02 0.0000e+00 0.0000e+00
<mgrwt>
<rscale>  0 0.63282471E+03</rscale>
<asrwt>0</asrwt>
<pdfrwt beam="1">  1        4 0.36906684E-01 0.63282471E+03</pdfrwt>
<pdfrwt beam="2">  1       -4 0.16954377E+00 0.63282471E+03</pdfrwt>
<totfact> 0.30178931E+00</totfact>
</mgrwt>
</event>
<event>
 6      1 +2.6141198e-09 4.69909900e+02 7.81860800e-03 1.02194600e-01
        4 -1    0    0  501    0 +0.0000000000e+00 +0.0000000000e+00 +1.2604919798e+02 1.2605559571e+02 1.2700000000e+00 0.0000e+00 1.0000e+00
       -4 -1    0    0    0  501 -0.0000000000e+00 -0.0000000000e+00 -4.3793618741e+02 4.3793802889e+02 1.2700000000e+00 0.0000e+00 1.0000e+00
      -13  1    1    2    0    0 +3.3447659858e+01 +5.9398111139e+01 +5.4290413162e+00 6.8383968958e+01 1.0566000000e-01 0.0000e+00 1.0000e+00
       13  1    1    2    0    0 +1.2541972369e+01 -2.4217647728e+01 -4.3231313549e+01 5.1115097257e+01 1.0566000000e-01 0.0000e+00 -1.0000e+00
    10002  1    1    2    0    0 -2.1641158749e+01 +5.8676812522e+01 -2.8129013223e+02 3.0501712504e+02 1.0000000000e+02 0.0000e+00 0.0000e+00
   -10002  1    1    2    0    0 -2.4348473478e+01 -9.3857275933e+01 +7.2054150278e+00 1.3947743334e+02 1.0000000000e+02 0.0000e+00 0.0000e+00
<mgrwt>
<rscale>  0 0.46990990E+03</rscale>
<asrwt>0</asrwt>
<pdfrwt beam="1">  1        4 0.31513330E-01 0.46990990E+03</pdfrwt>
<pdfrwt beam="2">  1       -4 0.10948507E+00 0.46990990E+03</pdfrwt>
<totfact> 0.12606853E+01</totfact>
</mgrwt>
</event>
<event>
 6      1 +2.6141198e-09 4.36081500e+02 7.81860800e-03 1.03195600e-01
        4 -1    0    0  501    0 +0.0000000000e+00 +0.0000000000e+00 +1.9055780456e+03 1.9055784688e+03 1.2700000000e+00 0.0000e+00 -1.0000e+00
       -4 -1    0    0    0  501 -0.0000000000e+00 -0.0000000000e+00 -2.4932150437e+01 2.4964475268e+01 1.2700000000e+00 0.0000e+00 -1.0000e+00
      -13  1    1    2    0    0 +4.2070818519e+01 -5.8824917498e+00 +7.8997896434e+01 8.9695241151e+01 1.0566000000e-01 0.0000e+00 -1.0000e+00
       13  1    1    2    0    0 -2.3628650326e+01 +6.1126016697e+01 +2.5593831596e+02 2.6419526070e+02 1.0566000000e-01 0.0000e+00 1.0000e+00
    10002  1    1    2    0    0 +3.4360427432e+01 +8.1185609036e+01 +6.9893855701e+02 7.1153836759e+02 1.0000000000e+02 0.0000e+00 0.0000e+00
   -10002  1    1    2    0    0 -5.2802595626e+01 -1.3642913398e+02 +8.4677112579e+02 8.6511407466e+02 1.0000000000e+02 0.0000e+00 0.0000e+00
<mgrwt>
<rscale>  0 0.43608150E+03</rscale>
<asrwt>0</asrwt>
<pdfrwt beam="1">  1        4 0.47639856E+00 0.43608150E+03</pdfrwt>
<pdfrwt beam="2">  1       -4 0.62371317E-02 0.43608150E+03</pdfrwt>
<totfact> 0.73162855E-01</totfact>
</mgrwt>
</event>
<event>
 6      1 +2.6141198e-09 5.47717400e+02 7.81860800e-03 1.00202400e-01
       -4 -1    0    0    0  501 -0.0000000000e+00 +0.0000000000e+00 +1.0447751425e+02 1.0448523285e+02 1.2700000000e+00 0.0000e+00 1.0000e+00
        4 -1    0    0  501    0 +0.0000000000e+00 -0.0000000000e+00 -7.1780959976e+02 7.1781072325e+02 1.2700000000e+00 0.0000e+00 1.0000e+00
      -13  1    1    2    0    0 +6.9733582962e+00 +7.9178352942e+01 -3.4404883637e+02 3.5311110471e+02 1.0566000000e-01 0.0000e+00 1.0000e+00
       13  1    1    2    0    0 -7.9669778111e+01 +3.5565722406e+00 -1.1955789958e+02 1.4371508365e+02 1.0566000000e-01 0.0000e+00 -1.0000e+00
    10002  1    1    2    0    0 +8.5885435862e+01 -8.1254362782e+00 -2.5741762372e+00 1.3209450099e+02 1.0000000000e+02 0.0000e+00 0.0000e+00
   -10002  1    1    2    0    0 -1.3189016047e+01 -7.4609488904e+01 -1.4715117333e+02 1.9337526675e+02 1.0000000000e+02 0.0000e+00 0.0000e+00
<mgrwt>
<rscale>  0 0.54771744E+03</rscale>
<asrwt>0</asrwt>
<pdfrwt beam="1">  1        4 0.17945349E+00 0.54771744E+03</pdfrwt>
<pdfrwt beam="2">  1       -4 0.26120486E-01 0.54771744E+03</pdfrwt>
<totfact> 0.50345208E+00</totfact>
</mgrwt>
</event>
<event>
 6      1 +2.6141198e-09 4.59107800e+02 7.81860800e-03 1.02504000e-01
       -4 -1    0    0    0  501 -0.0000000000e+00 +0.0000000000e+00 +1.1688227852e+03 1.1688234751e+03 1.2700000000e+00 0.0000e+00 1.0000e+00
        4 -1    0    0  501    0 +0.0000000000e+00 -0.0000000000e+00 -4.5074176621e+01 4.5092064691e+01 1.2700000000e+00 0.0000e+00 1.0000e+00
      -13  1    1    2    0    0 +2.1002322881e+01 +3.0962375634e+01 +9.3944518192e+00 3.8575032862e+01 1.0566000000e-01 0.0000e+00 -1.0000e+00
       13  1    1    2    0    0 +1.9001146506e-01 +4.7856068418e+01 +2.0617227377e+02 2.1165362511e+02 1.0566000000e-01 0.0000e+00 1.0000e+00
    10002  1    1    2    0    0 -2.4805775209e+01 +6.2160818069e+01 +1.8928560336e+02 2.2429519261e+02 1.0000000000e+02 0.0000e+00 0.0000e+00
   -10002  1    1    2    0    0 +3.6134408629e+00 -1.4097926212e+02 +7.1889627961e+02 7.3939168925e+02 1.0000000000e+02 0.0000e+00 0.0000e+00
<mgrwt>
<rscale>  0 0.45910783E+03</rscale>
<asrwt>0</asrwt>
<pdfrwt beam="1">  1        4 0.11270867E-01 0.45910783E+03</pdfrwt>
<pdfrwt beam="2">  1       -4 0.29220800E+00 0.45910783E+03</pdfrwt>
<totfact> 0.45797844E+00</totfact>
</mgrwt>
</event>
<event>
 6      1 +2.6141198e-09 3.89494100e+02 7.81860800e-03 1.04747900e-01
       -4 -1    0    0    0  501 -0.0000000000e+00 +0.0000000000e+00 +1.8562919718e+02 1.8563354154e+02 1.2700000000e+00 0.0000e+00 1.0000e+00
        4 -1    0    0  501    0 +0.0000000000e+00 -0.0000000000e+00 -2.0430402897e+02 2.0430797624e+02 1.2700000000e+00 0.0000e+00 1.0000e+00
      -13  1    1    2    0    0 +3.2277737564e+01 +2.1959131808e+01 -3.7607855460e+01 5.4207174509e+01 1.0566000000e-01 0.0000e+00 -1.0000e+00
       13  1    1    2    0    0 -4.2974613182e+01 +4.0411343191e+01 +3.3744325597e+01 6.7960170031e+01 1.0566000000e-01 0.0000e+00 1.0000e+00
    10002  1    1    2    0    0 +8.8008015797e+01 -3.9176906279e+01 -7.9250670492e+00 1.3907928501e+02 1.0000000000e+02 0.0000e+00 0.0000e+00
   -10002  1    1    2    0    0 -7.7311140179e+01 -2.3193568719e+01 -6.8862348839e+00 1.2869488823e+02 1.0000000000e+02 0.0000e+00 0.0000e+00
<mgrwt>
<rscale>  0 0.38949408E+03</rscale>
<asrwt>0</asrwt>
<pdfrwt beam="1">  1        4 0.51077044E-01 0.38949408E+03</pdfrwt>
<pdfrwt beam="2">  1       -4 0.46408336E-01 0.38949408E+03</pdfrwt>
<totfact> 0.31712576E+01</totfact>
</mgrwt>
</event>
<event>
 6      1 +2.6141198e-09 4.30968700e+02 7.81860800e-03 1.03355400e-01
        4 -1    0    0  501    0 +0.0000000000e+00 +0.0000000000e+00 +6.8607699573e+01 6.8619453078e+01 1.2700000000e+00 0.0000e+00 -1.0000e+00
       -4 -1    0    0    0  501 -0.0000000000e+00 -0.0000000000e+00 -6.7672691623e+02 6.7672810792e+02 1.2700000000e+00 0.0000e+00 -1.0000e+00
      -13  1    1    2    0    0 +1.8831298693e+01 -5.1517160551e+01 -9.3375080121e+01 1.0829382435e+02 1.0566000000e-01 0.0000e+00 -1.0000e+00
       13  1    1    2    0    0 -4.6951216843e+01 +1.7855060247e+01 -4.2507162755e+01 6.5803419281e+01 1.0566000000e-01 0.0000e+00 1.0000e+00
    10002  1    1    2    0    0 -8.4389225270e+01 +8.6003943344e+00 -8.8275254021e+01 1.5807602157e+02 1.0000000000e+02 0.0000e+00 0.0000e+00
   -10002  1    1    2    0    0 +1.1250914342e+02 +2.5061705970e+01 -3.8396171976e+02 4.1317429579e+02 1.0000000000e+02 0.0000e+00 0.0000e+00
<mgrwt>
<rscale>  0 0.43096868E+03</rscale>
<asrwt>0</asrwt>
<pdfrwt beam="1">  1        4 0.17153545E-01 0.43096868E+03</pdfrwt>
<pdfrwt beam="2">  1       -4 0.16918333E+00 0.43096868E+03</pdfrwt>
<totfact> 0.12832802E+01</totfact>
</mgrwt>
</event>
<event>
 6      1 +2.6141198e-09 5.75381600e+02 7.81860800e-03 9.95784000e-02
       -4 -1    0    0    0  501 -0.0000000000e+00 +0.0000000000e+00 +7.0696588785e+02 7.0696702857e+02 1.2700000000e+00 0.0000e+00 1.0000e+00
        4 -1    0    0  501    0 +0.0000000000e+00 -0.0000000000e+00 -1.1706745174e+02 1.1707434030e+02 1.2700000000e+00 0.0000e+00 1.0000e+00
      -13  1    1    2    0    0 -3.6027576590e+01 -7.5102742688e+01 +1.3252058117e+02 1.5652515399e+02 1.0566000000e-01 0.0000e+00 -1.0000e+00
       13  1    1    2    0    0 +5.2211879535e+01 -7.3224982275e+01 +6.1585124334e+01 1.0899870227e+02 1.0566000000e-01 0.0000e+00 1.0000e+00
    10002  1    1    2    0    0 -1.6932363687e+01 +1.3573655318e+02 +4.2168294877e+02 4.5445310660e+02 1.0000000000e+02 0.0000e+00 0.0000e+00
   -10002  1    1    2    0    0 +7.4806074208e-01 +1.2591171785e+01 -2.5890218167e+01 1.0406440601e+02 1.0000000000e+02 0.0000e+00 0.0000e+00
<mgrwt>
<rscale>  0 0.57538162E+03</rscale>
<asrwt>0</asrwt>
<pdfrwt beam="1">  1        4 0.29267867E-01 0.57538162E+03</pdfrwt>
<pdfrwt beam="2">  1       -4 0.17674247E+00 0.57538162E+03</pdfrwt>
<totfact> 0.42304866E+00</totfact>
</mgrwt>
</event>
<event>
 6      1 +2.6141198e-09 6.42453900e+02 7.81860800e-03 9.82104300e-02
       -4 -1    0    0    0  501 -0.0000000000e+00 +0.0000000000e+00 +3.1228857414e+02 3.1229115652e+02 1.2700000000e+00 0.0000e+00 1.0000e+00
        4 -1    0    0  501    0 +0.0000000000e+00 -0.0000000000e+00 -3.3041596901e+02 3.3041840971e+02 1.2700000000e+00 0.0000e+00 1.0000e+00
      -13  1    1    2    0    0 -7.4223766258e+01 +1.1900140146e+01 -7.7599754037e+01 1.0803940857e+02 1.0566000000e-01 0.0000e+00 -1.0000e+00
       13  1    1    2    0    0 +1.3544851267e+01 -3.1239593207e+01 -6.4521188472e+01 7.2954575631e+01 1.0566000000e-01 0.0000e+00 1.0000e+00
    10002  1    1    2    0    0 +1.0602323574e+02 -1.6932706598e+02 +8.9703263544e+01 2.4074728925e+02 1.0000000000e+02 0.0000e+00 0.0000e+00
   -10002  1    1    2    0    0 -4.5344320746e+01 +1.8866651904e+02 +3.4290284104e+01 2.2096829278e+02 1.0000000000e+02 0.0000e+00 0.0000e+00
<mgrwt>
<rscale>  0 0.64245388E+03</rscale>
<asrwt>0</asrwt>
<pdfrwt beam="1">  1        4 0.82604620E-01 0.64245388E+03</pdfrwt>
<pdfrwt beam="2">  1       -4 0.78072771E-01 0.64245388E+03</pdfrwt>
<totfact> 0.37092911E+00</totfact>
</mgrwt>
</event>
<event>
 6      1 +2.6141198e-09 5.20309200e+02 7.81860800e-03 1.00861000e-01
        4 -1    0    0  501    0 +0.0000000000e+00 +0.0000000000e+00 +3.2814122358e+02 3.2814368120e+02 1.2700000000e+00 0.0000e+00 -1.0000e+00
       -4 -1    0    0    0  501 -0.0000000000e+00 -0.0000000000e+00 -2.0624875904e+02 2.0625266909e+02 1.2700000000e+00 0.0000e+00 -1.0000e+00
      -13  1    1    2    0    0 +3.9904505312e+01 -9.2781857891e+01 -6.8834181764e+00 1.0123356809e+02 1.0566000000e-01 0.0000e+00 -1.0000e+00
       13  1    1    2    0    0 +7.1375000171e+01 +3.0452980143e+00 -2.7154409100e+00 7.1491602813e+01 1.0566000000e-01 0.0000e+00 1.0000e+00
    10002  1    1    2    0    0 +4.1187920875e+01 +5.0440077266e+01 +1.2816445949e+02 1.7511931617e+02 1.0000000000e+02 0.0000e+00 0.0000e+00
   -10002  1    1    2    0    0 -1.5246742636e+02 +3.9296482610e+01 +3.3268641369e+00 1.8655186322e+02 1.0000000000e+02 0.0000e+00 0.0000e+00
<mgrwt>
<rscale>  0 0.52030922E+03</rscale>
<asrwt>0</asrwt>
<pdfrwt beam="1">  1        4 0.82036101E-01 0.52030922E+03</pdfrwt>
<pdfrwt beam="2">  1       -4 0.51562986E-01 0.52030922E+03</pdfrwt>
<totfact> 0.92409200E+00</totfact>
</mgrwt>
</event>
<event>
 6      1 +2.6141198e-09 6.31826600e+02 7.81860800e-03 9.84149100e-02
       -4 -1    0    0    0  501 -0.0000000000e+00 +0.0000000000e+00 +4.6668533900e+02 4.6668706703e+02 1.2700000000e+00 0.0000e+00 -1.0000e+00
        4 -1    0    0  501    0 +0.0000000000e+00 -0.0000000000e+00 -2.1384716515e+02 2.1385093627e+02 1.2700000000e+00 0.0000e+00 -1.0000e+00
      -13  1    1    2    0    0 +7.1058446507e+00 -1.8591275126e+01 -1.7147641310e+01 2.6271301939e+01 1.0566000000e-01 0.0000e+00 1.0000e+00
       13  1    1    2    0    0 -3.8011751651e+01 -1.3480229771e+00 +1.0973779088e+02 1.1614260347e+02 1.0566000000e-01 0.0000e+00 -1.0000e+00
    10002  1    1    2    0    0 -4.8935870214e+01 -2.1676176421e+02 +9.2530634954e+01 2.6065743845e+02 1.0000000000e+02 0.0000e+00 0.0000e+00
   -10002  1    1    2    0    0 +7.9841777214e+01 +2.3670106231e+02 +6.7717389325e+01 2.7746665945e+02 1.0000000000e+02 0.0000e+00 0.0000e+00
<mgrwt>
<rscale>  0 0.63182658E+03</rscale>
<asrwt>0</asrwt>
<pdfrwt beam="1">  1        4 0.53462479E-01 0.63182658E+03</pdfrwt>
<pdfrwt beam="2">  1       -4 0.11667202E+00 0.63182658E+03</pdfrwt>
<totfact> 0.37373395E+00</totfact>
</mgrwt>
</event>
<event>
 6      1 +2.6141198e-09 4.64016500e+02 7.81860800e-03 1.02362300e-01
        4 -1    0    0  501    0 +0.0000000000e+00 +0.0000000000e+00 +3.4787920629e+02 3.4788152447e+02 1.2700000000e+00 0.0000e+00 -1.0000e+00
       -4 -1    0    0    0  501 -0.0000000000e+00 -0.0000000000e+00 -1.5472594415e+02 1.5473115619e+02 1.2700000000e+00 0.0000e+00 -1.0000e+00
      -13  1    1    2    0    0 +2.2400941706e+01 +7.7440645650e+00 -1.7202974318e+00 2.3764328575e+01 1.0566000000e-01 0.0000e+00 1.0000e+00
       13  1    1    2    0    0 -5.3268321654e+01 -5.4279217560e+01 +7.9153528170e+01 1.0976811803e+02 1.0566000000e-01 0.0000e+00 -1.0000e+00
    10002  1    1    2    0    0 -1.0473512763e+01 +4.3658136545e+01 -8.6550458195e+01 1.3966642105e+02 1.0000000000e+02 0.0000e+00 0.0000e+00
   -10002  1    1    2    0    0 +4.1340892710e+01 +2.8770164494e+00 +2.0227048959e+02 2.2941381299e+02 1.0000000000e+02 0.0000e+00 0.0000e+00
<mgrwt>
<rscale>  0 0.46401651E+03</rscale>
<asrwt>0</asrwt>
<pdfrwt beam="1">  1        4 0.86970743E-01 0.46401651E+03</pdfrwt>
<pdfrwt beam="2">  1       -4 0.38682427E-01 0.46401651E+03</pdfrwt>
<totfact> 0.14481551E+01</totfact>
</mgrwt>
</event>
<event>
 6      1 +2.6141198e-09 4.09798600e+02 7.81860800e-03 1.04043900e-01
       -4 -1    0    0    0  501 -0.0000000000e+00 +0.0000000000e+00 +2.1338674714e+02 2.1339052640e+02 1.2700000000e+00 0.0000e+00 1.0000e+00
        4 -1    0    0  501    0 +0.0000000000e+00 -0.0000000000e+00 -1.9674183054e+02 1.9674592952e+02 1.2700000000e+00 0.0000e+00 1.0000e+00
      -13  1    1    2    0    0 +3.4028268319e+01 +1.1934462373e+01 -1.9881116218e+01 4.1177959918e+01 1.0566000000e-01 0.0000e+00 1.0000e+00
       13  1    1    2    0    0 -2.5864923266e+01 -3.5838113833e-01 +7.7259188029e+01 8.1474634038e+01 1.0566000000e-01 0.0000e+00 -1.0000e+00
    10002  1    1    2    0    0 +1.3535380285e+01 +6.6918342284e+00 +7.9433192658e+01 1.2859867519e+02 1.0000000000e+02 0.0000e+00 0.0000e+00
   -10002  1    1    2    0    0 -2.1698725338e+01 -1.8267915463e+01 -1.2016634787e+02 1.5888518677e+02 1.0000000000e+02 0.0000e+00 0.0000e+00
<mgrwt>
<rscale>  0 0.40979856E+03</rscale>
<asrwt>0</asrwt>
<pdfrwt beam="1">  1        4 0.49186442E-01 0.40979856E+03</pdfrwt>
<pdfrwt beam="2">  1       -4 0.53347672E-01 0.40979856E+03</pdfrwt>
<totfact> 0.25781631E+01</totfact>
</mgrwt>
</event>
<event>
 6      1 +2.6141198e-09 3.61219600e+02 7.81860800e-03 1.05810200e-01
       -4 -1    0    0    0  501 -0.0000000000e+00 +0.0000000000e+00 +5.5836158336e+01 5.5850599618e+01 1.2700000000e+00 0.0000e+00 1.0000e+00
        4 -1    0    0  501    0 +0.0000000000e+00 -0.0000000000e+00 -5.8411686936e+02 5.8411824999e+02 1.2700000000e+00 0.0000e+00 1.0000e+00
      -13  1    1    2    0    0 -3.2829169836e-01 +3.4296877636e+01 -1.5119790438e+02 1.5503935321e+02 1.0566000000e-01 0.0000e+00 -1.0000e+00
       13  1    1    2    0    0 +5.4353641706e+01 -3.2143202990e+01 -8.4045777225e+01 1.0512472449e+02 1.0566000000e-01 0.0000e+00 1.0000e+00
    10002  1    1    2    0    0 -2.2302573294e+01 +5.1707115345e+01 -9.3532250568e+01 1.4805172221e+02 1.0000000000e+02 0.0000e+00 0.0000e+00
   -10002  1    1    2    0    0 -3.1722776714e+01 -5.3860789991e+01 -1.9950477885e+02 2.3175304970e+02 1.0000000000e+02 0.0000e+00 0.0000e+00
<mgrwt>
<rscale>  0 0.36121963E+03</rscale>
<asrwt>0</asrwt>
<pdfrwt beam="1">  1        4 0.14603118E+00 0.36121963E+03</pdfrwt>
<pdfrwt beam="2">  1       -4 0.13961019E-01 0.36121963E+03</pdfrwt>
<totfact> 0.27173570E+01</totfact>
</mgrwt>
</event>
<event>
 6      1 +2.6141198e-09 4.86567800e+02 7.81860800e-03 1.01734600e-01
       -4 -1    0    0    0  501 -0.0000000000e+00 +0.0000000000e+00 +3.1726702386e+02 3.1726956572e+02 1.2700000000e+00 0.0000e+00 -1.0000e+00
        4 -1    0    0  501    0 +0.0000000000e+00 -0.0000000000e+00 -1.8654733505e+02 1.8655165803e+02 1.2700000000e+00 0.0000e+00 -1.0000e+00
      -13  1    1    2    0    0 +9.2886031035e+00 +2.6848032586e+01 -2.1482198824e+01 3.5617285575e+01 1.0566000000e-01 0.0000e+00 -1.0000e+00
       13  1    1    2    0    0 +3.5078512315e+01 -2.8255534764e+01 +7.6963603329e+01 8.9175583387e+01 1.0566000000e-01 0.0000e+00 1.0000e+00
    10002  1    1    2    0    0 +1.2223572618e+02 -4.6293709940e+01 +7.0102305352e+01 1.7888268097e+02 1.0000000000e+02 0.0000e+00 0.0000e+00
   -10002  1    1    2    0    0 -1.6660284160e+02 +4.7701212117e+01 +5.1359789609e+00 2.0014567382e+02 1.0000000000e+02 0.0000e+00 0.0000e+00
<mgrwt>
<rscale>  0 0.48656776E+03</rscale>
<asrwt>0</asrwt>
<pdfrwt beam="1">  1        4 0.46637692E-01 0.48656776E+03</pdfrwt>
<pdfrwt beam="2">  1       -4 0.79317613E-01 0.48656776E+03</pdfrwt>
<totfact> 0.12253593E+01</totfact>
</mgrwt>
</event>
<event>
 6      1 +2.6141198e-09 5.41257100e+02 7.81860800e-03 1.00353800e-01
        4 -1    0    0  501    0 +0.0000000000e+00 +0.0000000000e+00 +1.0361845998e+02 1.0362624257e+02 1.2700000000e+00 0.0000e+00 1.0000e+00
       -4 -1    0    0    0  501 -0.0000000000e+00 -0.0000000000e+00 -7.0678722331e+02 7.0678836432e+02 1.2700000000e+00 0.0000e+00 1.0000e+00
      -13  1    1    2    0    0 -2.3462217510e+01 +9.9789139917e+01 -1.0014500935e+02 1.4330869533e+02 1.0566000000e-01 0.0000e+00 1.0000e+00
       13  1    1    2    0    0 -6.7268582301e+01 +9.1944057862e+00 -1.1142719185e+02 1.3048229578e+02 1.0566000000e-01 0.0000e+00 -1.0000e+00
    10002  1    1    2    0    0 -4.5826456472e+01 -1.4460628693e+02 -1.3157165090e+02 2.2432597187e+02 1.0000000000e+02 0.0000e+00 0.0000e+00
   -10002  1    1    2    0    0 +1.3655725628e+02 +3.5622741231e+01 -2.6002491122e+02 3.1229764391e+02 1.0000000000e+02 0.0000e+00 0.0000e+00
<mgrwt>
<rscale>  0 0.54125713E+03</rscale>
<asrwt>0</asrwt>
<pdfrwt beam="1">  1        4 0.25905732E-01 0.54125713E+03</pdfrwt>
<pdfrwt beam="2">  1       -4 0.17669791E+00 0.54125713E+03</pdfrwt>
<totfact> 0.53418027E+00</totfact>
</mgrwt>
</event>
<event>
 6      1 +2.6141198e-09 3.87948700e+02 7.81860800e-03 1.04803400e-01
        4 -1    0    0  501    0 +0.0000000000e+00 +0.0000000000e+00 +4.4471869313e+02 4.4472050652e+02 1.2700000000e+00 0.0000e+00 1.0000e+00
       -4 -1    0    0    0  501 -0.0000000000e+00 -0.0000000000e+00 -8.4599629646e+01 8.4609161657e+01 1.2700000000e+00 0.0000e+00 1.0000e+00
      -13  1    1    2    0    0 +9.3565178592e+00 +3.7468355360e+01 +7.9386144813e+00 3.9426575349e+01 1.0566000000e-01 0.0000e+00 1.0000e+00
       13  1    1    2    0    0 -2.9168000005e+00 -5.5208214826e+01 +2.0482774670e+01 5.8957696094e+01 1.0566000000e-01 0.0000e+00 -1.0000e+00
    10002  1    1    2    0    0 -2.2118744676e-02 +1.2257515401e+01 +1.8981555563e+01 1.0252095700e+02 1.0000000000e+02 0.0000e+00 0.0000e+00
   -10002  1    1    2    0    0 -6.4175991140e+00 +5.4823440641e+00 +3.1271611877e+02 3.2842443973e+02 1.0000000000e+02 0.0000e+00 0.0000e+00
<mgrwt>
<rscale>  0 0.38794865E+03</rscale>
<asrwt>0</asrwt>
<pdfrwt beam="1">  1        4 0.11118109E+00 0.38794865E+03</pdfrwt>
<pdfrwt beam="2">  1       -4 0.21151326E-01 0.38794865E+03</pdfrwt>
<totfact> 0.25538987E+01</totfact>
</mgrwt>
</event>
<event>
 6      1 +2.6141198e-09 4.83874300e+02 7.81860800e-03 1.01807600e-01
       -4 -1    0    0    0  501 -0.0000000000e+00 +0.0000000000e+00 +2.8022214910e+02 2.8022502698e+02 1.2700000000e+00 0.0000e+00 -1.0000e+00
        4 -1    0    0  501    0 +0.0000000000e+00 -0.0000000000e+00 -2.0887688424e+02 2.0888074509e+02 1.2700000000e+00 0.0000e+00 -1.0000e+00
      -13  1    1    2    0    0 -5.6962788849e+01 +4.2655144588e+01 -1.8662942141e+01 7.3569947987e+01 1.0566000000e-01 0.0000e+00 1.0000e+00
       13  1    1    2    0    0 +2.9168278978e+01 +2.9407902336e+01 +3.6821063892e+01 5.5420349408e+01 1.0566000000e-01 0.0000e+00 -1.0000e+00
    10002  1    1    2    0    0 +9.5350448941e+01 +2.2959843609e+01 -7.6047181678e+01 1.5938016305e+02 1.0000000000e+02 0.0000e+00 0.0000e+00
   -10002  1    1    2    0    0 -6.7555939070e+01 -9.5022890533e+01 +1.2923432479e+02 2.0073531163e+02 1.0000000000e+02 0.0000e+00 0.0000e+00
<mgrwt>
<rscale>  0 0.48387427E+03</rscale>
<asrwt>0</asrwt>
<pdfrwt beam="1">  1        4 0.52220064E-01 0.48387427E+03</pdfrwt>
<pdfrwt beam="2">  1       -4 0.70056379E-01 0.48387427E+03</pdfrwt>
<totfact> 0.12781605E+01</totfact>
</mgrwt>
</event>
<event>
 6      1 +2.6141198e-09 3.53145800e+02 7.81860800e-03 1.06133100e-01
        4 -1    0    0  501    0 +0.0000000000e+00 +0.0000000000e+00 +1.9165064206e+02 1.9165484993e+02 1.2700000000e+00 0.0000e+00 1.0000e+00
       -4 -1    0    0    0  501 -0.0000000000e+00 -0.0000000000e+00 -1.6267288564e+02 1.6267784306e+02 1.2700000000e+00 0.0000e+00 1.0000e+00
      -13  1    1    2    0    0 -5.3177743215e+01 -1.2349199801e+01 +1.2713069450e+01 5.6053620829e+01 1.0566000000e-01 0.0000e+00 -1.0000e+00
       13  1    1    2    0    0 +4.2812803724e+01 -3.1586359541e+01 -1.3997466914e+00 5.3222220234e+01 1.0566000000e-01 0.0000e+00 1.0000e+00
    10002  1    1    2    0    0 -3.4813948152e+00 +5.7760396373e+01 +6.5151048726e+01 1.3263876752e+02 1.0000000000e+02 0.0000e+00 0.0000e+00
   -10002  1    1    2    0    0 +1.3846334306e+01 -1.3824837032e+01 -4.7486615066e+01 1.1241808441e+02 1.0000000000e+02 0.0000e+00 0.0000e+00
<mgrwt>
<rscale>  0 0.35314579E+03</rscale>
<asrwt>0</asrwt>
<pdfrwt beam="1">  1        4 0.47913806E-01 0.35314579E+03</pdfrwt>
<pdfrwt beam="2">  1       -4 0.40669367E-01 0.35314579E+03</pdfrwt>
<totfact> 0.46946809E+01</totfact>
</mgrwt>
</event>
<event>
 6      1 +2.6141198e-09 3.97522800e+02 7.81860800e-03 1.04464100e-01
       -4 -1    0    0    0  501 -0.0000000000e+00 +0.0000000000e+00 +1.4061597600e+02 1.4062171100e+02 1.2700000000e+00 0.0000e+00 -1.0000e+00
        4 -1    0    0  501    0 +0.0000000000e+00 -0.0000000000e+00 -2.8093738764e+02 2.8094025819e+02 1.2700000000e+00 0.0000e+00 -1.0000e+00
      -13  1    1    2    0    0 -1.8610755995e+01 +3.5439862178e+01 +1.9407903866e+01 4.4486199730e+01 1.0566000000e-01 0.0000e+00 -1.0000e+00
       13  1    1    2    0    0 +8.7402493003e+01 +3.4624402998e+01 -1.3808388288e+01 9.5019618065e+01 1.0566000000e-01 0.0000e+00 1.0000e+00
    10002  1    1    2    0    0 -6.8172434222e+01 -6.7404763446e+01 -1.0563625403e+02 1.7421223002e+02 1.0000000000e+02 0.0000e+00 0.0000e+00
   -10002  1    1    2    0    0 -6.1930278627e-01 -2.6595017301e+00 -4.0284673195e+01 1.0784392139e+02 1.0000000000e+02 0.0000e+00 0.0000e+00
<mgrwt>
<rscale>  0 0.39752282E+03</rscale>
<asrwt>0</asrwt>
<pdfrwt beam="1">  1        4 0.70235422E-01 0.39752282E+03</pdfrwt>
<pdfrwt beam="2">  1       -4 0.35155070E-01 0.39752282E+03</pdfrwt>
<totfact> 0.28050919E+01</totfact>
</mgrwt>
</event>
<event>
 6      1 +2.6141198e-09 5.68413800e+02 7.81860800e-03 9.97319500e-02
       -4 -1    0    0    0  501 -0.0000000000e+00 +0.0000000000e+00 +5.9838025408e+02 5.9838160180e+02 1.2700000000e+00 0.0000e+00 -1.0000e+00
        4 -1    0    0  501    0 +0.0000000000e+00 -0.0000000000e+00 -1.3498250723e+02 1.3498848157e+02 1.2700000000e+00 0.0000e+00 -1.0000e+00
      -13  1    1    2    0    0 -1.4880846811e+01 -4.1487288616e+00 +7.6248252062e+01 7.7797549187e+01 1.0566000000e-01 0.0000e+00 1.0000e+00
       13  1    1    2    0    0 +1.0403093349e+02 +2.2527105113e+01 +1.2088024590e+02 1.6106505084e+02 1.0566000000e-01 0.0000e+00 -1.0000e+00
    10002  1    1    2    0    0 -1.4626413387e+00 -1.1031999865e+02 +2.9484823946e+02 3.3031519150e+02 1.0000000000e+02 0.0000e+00 0.0000e+00
   -10002  1    1    2    0    0 -8.7687445344e+01 +9.1941622403e+01 -2.8578990568e+01 1.6419229185e+02 1.0000000000e+02 0.0000e+00 0.0000e+00
<mgrwt>
<rscale>  0 0.56841376E+03</rscale>
<asrwt>0</asrwt>
<pdfrwt beam="1">  1        4 0.33746542E-01 0.56841376E+03</pdfrwt>
<pdfrwt beam="2">  1       -4 0.14959598E+00 0.56841376E+03</pdfrwt>
<totfact> 0.50508870E+00</totfact>
</mgrwt>
</event>
<event>
 6      1 +2.6141198e-09 4.96736900e+02 7.81860800e-03 1.01463400e-01
        4 -1    0    0  501    0 +0.0000000000e+00 +0.0000000000e+00 +2.1405975155e+02 2.1406351893e+02 1.2700000000e+00 0.0000e+00 -1.0000e+00
       -4 -1    0    0    0  501 -0.0000000000e+00 -0.0000000000e+00 -2.8816834095e+02 2.8817113947e+02 1.2700000000e+00 0.0000e+00 -1.0000e+00
      -13  1    1    2    0    0 +6.3261559935e+00 +3.9372740337e+01 +7.3746876798e+01 8.3838212843e+01 1.0566000000e-01 0.0000e+00 1.0000e+00
       13  1    1    2    0    0 -2.9367688982e+01 +5.1776896943e-01 -2.0691772005e+01 3.5928955364e+01 1.0566000000e-01 0.0000e+00 -1.0000e+00
    10002  1    1    2    0    0 +1.1791994068e+02 -7.9587160785e+01 -1.5888825945e+02 2.3555192116e+02 1.0000000000e+02 0.0000e+00 0.0000e+00
   -10002  1    1    2    0    0 -9.4878407688e+01 +3.9696651479e+01 +3.1724565259e+01 1.4691556904e+02 1.0000000000e+02 0.0000e+00 0.0000e+00
<mgrwt>
<rscale>  0 0.49673692E+03</rscale>
<asrwt>0</asrwt>
<pdfrwt beam="1">  1        4 0.53515759E-01 0.49673692E+03</pdfrwt>
<pdfrwt beam="2">  1       -4 0.72042906E-01 0.49673692E+03</pdfrwt>
<totfact> 0.11425367E+01</totfact>
</mgrwt>
</event>
<event>
 6      1 +2.6141198e-09 5.19860800e+02 7.81860800e-03 1.00872100e-01
       -4 -1    0    0    0  501 -0.0000000000e+00 +0.0000000000e+00 +1.3251885534e+02 1.3252494075e+02 1.2700000000e+00 0.0000e+00 -1.0000e+00
        4 -1    0    0  501    0 +0.0000000000e+00 -0.0000000000e+00 -5.0982453044e+02 5.0982611226e+02 1.2700000000e+00 0.0000e+00 -1.0000e+00
      -13  1    1    2    0    0 +4.5299428696e+01 -7.5919848883e+01 -5.0379097725e+01 1.0175424486e+02 1.0566000000e-01 0.0000e+00 1.0000e+00
       13  1    1    2    0    0 +2.3326048902e+01 +3.1721698806e+01 -1.3288740255e+01 4.1556858809e+01 1.0566000000e-01 0.0000e+00 -1.0000e+00
    10002  1    1    2    0    0 -1.7011158779e+01 +9.2820298433e+01 +2.4235193661e+01 1.3961494166e+02 1.0000000000e+02 0.0000e+00 0.0000e+00
   -10002  1    1    2    0    0 -5.1614318819e+01 -4.8622148356e+01 -3.3787303078e+02 3.5942500768e+02 1.0000000000e+02 0.0000e+00 0.0000e+00
<mgrwt>
<rscale>  0 0.51986085E+03</rscale>
<asrwt>0</asrwt>
<pdfrwt beam="1">  1        4 0.12745709E+00 0.51986085E+03</pdfrwt>
<pdfrwt beam="2">  1       -4 0.33130673E-01 0.51986085E+03</pdfrwt>
<totfact> 0.78933382E+00</totfact>
</mgrwt>
</event>
<event>
 6      1 +2.6141198e-09 4.36345000e+02 7.81860800e-03 1.03187400e-01
        4 -1    0    0  501    0 +0.0000000000e+00 +0.0000000000e+00 +6.8628875040e+01 6.8640624919e+01 1.2700000000e+00 0.0000e+00 1.0000e+00
       -4 -1    0    0    0  501 -0.0000000000e+00 -0.0000000000e+00 -6.9350271309e+02 6.9350387596e+02 1.2700000000e+00 0.0000e+00 1.0000e+00
      -13  1    1    2    0    0 +3.8077866525e+01 +2.1523129222e+01 -3.3965104992e+01 5.5378773295e+01 1.0566000000e-01 0.0000e+00 -1.0000e+00
       13  1    1    2    0    0 -2.7662936661e+01 +4.4623682614e+01 -2.9698924699e+01 6.0320381357e+01 1.0566000000e-01 0.0000e+00 1.0000e+00
    10002  1    1    2    0    0 -2.4198599055e+01 +8.6951817913e+01 -1.9669803182e+02 2.3840366305e+02 1.0000000000e+02 0.0000e+00 0.0000e+00
   -10002  1    1    2    0    0 +1.3783669191e+01 -1.5309862975e+02 -3.6451177654e+02 4.0804168317e+02 1.0000000000e+02 0.0000e+00 0.0000e+00
<mgrwt>
<rscale>  0 0.43634496E+03</rscale>
<asrwt>0</asrwt>
<pdfrwt beam="1">  1        4 0.17158835E-01 0.43634496E+03</pdfrwt>
<pdfrwt beam="2">  1       -4 0.17337727E+00 0.43634496E+03</pdfrwt>
<totfact> 0.11993955E+01</totfact>
</mgrwt>
</event>
<event>
 6      1 +2.6141198e-09 3.28766300e+02 7.81860800e-03 1.07168400e-01
        4 -1    0    0  501    0 +0.0000000000e+00 +0.0000000000e+00 +3.6632845315e+02 3.6633065459e+02 1.2700000000e+00 0.0000e+00 1.0000e+00
       -4 -1    0    0    0  501 -0.0000000000e+00 -0.0000000000e+00 -7.3756033985e+01 7.3766967195e+01 1.2700000000e+00 0.0000e+00 1.0000e+00
      -13  1    1    2    0    0 +2.1655643342e+01 +7.5879409654e-02 -1.8490599996e+01 2.8476061851e+01 1.0566000000e-01 0.0000e+00 1.0000e+00
       13  1    1    2    0    0 -9.4951191675e+00 +1.4728265950e+01 +8.5902817246e+01 8.7672026786e+01 1.0566000000e-01 0.0000e+00 -1.0000e+00
    10002  1    1    2    0    0 -6.3504946650e+01 -1.5861438818e+01 +1.0120433744e+02 1.5661028512e+02 1.0000000000e+02 0.0000e+00 0.0000e+00
   -10002  1    1    2    0    0 +5.1344422476e+01 +1.0572934580e+00 +1.2395586448e+02 1.6733924802e+02 1.0000000000e+02 0.0000e+00 0.0000e+00
<mgrwt>
<rscale>  0 0.32876632E+03</rscale>
<asrwt>0</asrwt>
<pdfrwt beam="1">  1        4 0.91583754E-01 0.32876632E+03</pdfrwt>
<pdfrwt beam="2">  1       -4 0.18440651E-01 0.32876632E+03</pdfrwt>
<totfact> 0.51236959E+01</totfact>
</mgrwt>
</event>
<event>
 6      1 +2.6141198e-09 3.61875200e+02 7.81860800e-03 1.05784400e-01
       -4 -1    0    0    0  501 -0.0000000000e+00 +0.0000000000e+00 +4.6469628619e+02 4.6469802163e+02 1.2700000000e+00 0.0000e+00 1.0000e+00
        4 -1    0    0  501    0 +0.0000000000e+00 -0.0000000000e+00 -7.0443635985e+01 7.0455083214e+01 1.2700000000e+00 0.0000e+00 1.0000e+00
      -13  1    1    2    0    0 +2.2582830350e+01 +1.9252533983e+01 +7.0347796967e+01 7.6350952801e+01 1.0566000000e-01 0.0000e+00 1.0000e+00
       13  1    1    2    0    0 -5.6776658760e+01 -3.9324628878e+00 +3.2412246479e+01 6.5495176389e+01 1.0566000000e-01 0.0000e+00 -1.0000e+00
    10002  1    1    2    0    0 -4.6497019108e+01 +1.9722888007e+01 +2.0760019504e+02 2.3589999169e+02 1.0000000000e+02 0.0000e+00 0.0000e+00
   -10002  1    1    2    0    0 +8.0690847518e+01 -3.5042959102e+01 +8.3892411725e+01 1.5740698396e+02 1.0000000000e+02 0.0000e+00 0.0000e+00
<mgrwt>
<rscale>  0 0.36187525E+03</rscale>
<asrwt>0</asrwt>
<pdfrwt beam="1">  1        4 0.17612557E-01 0.36187525E+03</pdfrwt>
<pdfrwt beam="2">  1       -4 0.11617572E+00 0.36187525E+03</pdfrwt>
<totfact> 0.31904950E+01</totfact>
</mgrwt>
</event>
<event>
 6      1 +2.6141198e-09 7.79853800e+02 7.81860800e-03 9.58964500e-02
        4 -1    0    0  501    0 +0.0000000000e+00 +0.0000000000e+00 +3.9696270838e+02 3.9696473992e+02 1.2700000000e+00 0.0000e+00 -1.0000e+00
       -4 -1    0    0    0  501 -0.0000000000e+00 -0.0000000000e+00 -3.8301173765e+02 3.8301384319e+02 1.2700000000e+00 0.0000e+00 -1.0000e+00
      -13  1    1    2    0    0 +3.5131634366e+01 -1.6703957441e+01 +1.5530109188e+01 4.1886147863e+01 1.0566000000e-01 0.0000e+00 -1.0000e+00
       13  1    1    2    0    0 -1.8956443249e+01 -1.1739843357e+02 -3.8498058492e+01 1.2499540238e+02 1.0566000000e-01 0.0000e+00 1.0000e+00
    10002  1    1    2    0    0 +3.1654875276e+01 -1.8293020323e+02 +1.4993410412e+02 2.5873872142e+02 1.0000000000e+02 0.0000e+00 0.0000e+00
   -10002  1    1    2    0    0 -4.7830066392e+01 +3.1703259424e+02 -1.1301518409e+02 3.5435831145e+02 1.0000000000e+02 0.0000e+00 0.0000e+00
<mgrwt>
<rscale>  0 0.77985381E+03</rscale>
<asrwt>0</asrwt>
<pdfrwt beam="1">  1        4 0.99241194E-01 0.77985381E+03</pdfrwt>
<pdfrwt beam="2">  1       -4 0.95753452E-01 0.77985381E+03</pdfrwt>
<totfact> 0.15079834E+00</totfact>
</mgrwt>
</event>
<event>
 6      1 +2.6141198e-09 4.73210300e+02 7.81860800e-03 1.02101800e-01
        4 -1    0    0  501    0 +0.0000000000e+00 +0.0000000000e+00 +2.7442531980e+02 2.7442825847e+02 1.2700000000e+00 0.0000e+00 -1.0000e+00
       -4 -1    0    0    0  501 -0.0000000000e+00 -0.0000000000e+00 -2.0399118957e+02 2.0399514289e+02 1.2700000000e+00 0.0000e+00 -1.0000e+00
      -13  1    1    2    0    0 +2.7733006291e+01 +5.8237479265e+00 -5.1260166219e+01 5.8571763527e+01 1.0566000000e-01 0.0000e+00 -1.0000e+00
       13  1    1    2    0    0 -1.7521032118e+01 -3.3294043793e+01 +3.4323688802e+01 5.0927465042e+01 1.0566000000e-01 0.0000e+00 1.0000e+00
    10002  1    1    2    0    0 -1.2234469342e+02 -5.4998796454e+01 -1.7132167226e+01 1.6818621457e+02 1.0000000000e+02 0.0000e+00 0.0000e+00
   -10002  1    1    2    0    0 +1.1213271925e+02 +8.2469092321e+01 +1.0450277488e+02 2.0073795822e+02 1.0000000000e+02 0.0000e+00 0.0000e+00
<mgrwt>
<rscale>  0 0.47321030E+03</rscale>
<asrwt>0</asrwt>
<pdfrwt beam="1">  1        4 0.68607191E-01 0.47321030E+03</pdfrwt>
<pdfrwt beam="2">  1       -4 0.50998659E-01 0.47321030E+03</pdfrwt>
<totfact> 0.14047627E+01</totfact>
</mgrwt>
</event>
<event>
 6      1 +2.6141198e-09 4.29771500e+02 7.81860800e-03 1.03393200e-01
       -4 -1    0    0    0  501 -0.0000000000e+00 +0.0000000000e+00 +7.7726692389e+01 7.7737067154e+01 1.2700000000e+00 0.0000e+00 1.0000e+00
        4 -1    0    0  501    0 +0.0000000000e+00 -0.0000000000e+00 -5.9402938700e+02 5.9403074459e+02 1.2700000000e+00 0.0000e+00 1.0000e+00
      -13  1    1    2    0    0 +9.2269363348e+00 -1.2536898121e+01 -7.3279169738e+01 7.4914338082e+01 1.0566000000e-01 0.0000e+00 1.0000e+00
       13  1    1    2    0    0 -9.6737932875e+01 +7.5699201834e+01 -1.4152221638e+02 1.8739569287e+02 1.0566000000e-01 0.0000e+00 -1.0000e+00
    10002  1    1    2    0    0 +7.0319433410e+01 -7.4086493873e+01 -7.5898739174e+01 1.6184637746e+02 1.0000000000e+02 0.0000e+00 0.0000e+00
   -10002  1    1    2    0    0 +1.7191563130e+01 +1.0924190160e+01 -2.2560256932e+02 2.4761140332e+02 1.0000000000e+02 0.0000e+00 0.0000e+00
<mgrwt>
<rscale>  0 0.42977147E+03</rscale>
<asrwt>0</asrwt>
<pdfrwt beam="1">  1        4 0.14850880E+00 0.42977147E+03</pdfrwt>
<pdfrwt beam="2">  1       -4 0.19433141E-01 0.42977147E+03</pdfrwt>
<totfact> 0.14508637E+01</totfact>
</mgrwt>
</event>
<event>
 6      1 +2.6141198e-09 5.34290400e+02 7.81860800e-03 1.00519700e-01
       -4 -1    0    0    0  501 -0.0000000000e+00 +0.0000000000e+00 +1.3114817017e+03 1.3114823166e+03 1.2700000000e+00 0.0000e+00 1.0000e+00
        4 -1    0    0  501    0 +0.0000000000e+00 -0.0000000000e+00 -5.4408709749e+01 5.4423529806e+01 1.2700000000e+00 0.0000e+00 1.0000e+00
      -13  1    1    2    0    0 +6.6311269532e+01 +3.7337011957e+01 +7.5235150632e+01 1.0701203663e+02 1.0566000000e-01 0.0000e+00 -1.0000e+00
       13  1    1    2    0    0 -1.0888144285e+00 -4.4009387882e+01 +5.0794845028e+01 6.7217104847e+01 1.0566000000e-01 0.0000e+00 1.0000e+00
    10002  1    1    2    0    0 -1.2728853054e+02 +5.7173933430e+01 +9.7408654435e+02 9.8909849083e+02 1.0000000000e+02 0.0000e+00 0.0000e+00
   -10002  1    1    2    0    0 +6.2066075436e+01 -5.0501557505e+01 +1.5695645195e+02 2.0257821413e+02 1.0000000000e+02 0.0000e+00 0.0000e+00
<mgrwt>
<rscale>  0 0.53429044E+03</rscale>
<asrwt>0</asrwt>
<pdfrwt beam="1">  1        4 0.13604106E-01 0.53429044E+03</pdfrwt>
<pdfrwt beam="2">  1       -4 0.32787238E+00 0.53429044E+03</pdfrwt>
<totfact> 0.19901593E+00</totfact>
</mgrwt>
</event>
<event>
 6      1 +2.6141198e-09 3.96009700e+02 7.81860800e-03 1.04517000e-01
        4 -1    0    0  501    0 +0.0000000000e+00 +0.0000000000e+00 +1.1125074169e+02 1.1125799039e+02 1.2700000000e+00 0.0000e+00 1.0000e+00
       -4 -1    0    0    0  501 -0.0000000000e+00 -0.0000000000e+00 -3.5239061012e+02 3.5239289863e+02 1.2700000000e+00 0.0000e+00 1.0000e+00
      -13  1    1    2    0    0 -3.7832307060e+01 +8.4195195847e+01 -7.2800740473e+01 1.1755880843e+02 1.0566000000e-01 0.0000e+00 1.0000e+00
       13  1    1    2    0    0 +1.1391566807e+01 -2.2021904624e+01 -3.0079832703e+00 2.4975812398e+01 1.0566000000e-01 0.0000e+00 -1.0000e+00
    10002  1    1    2    0    0 +5.3294449272e+01 +3.6249348283e+01 -2.6448336011e+01 1.2187628174e+02 1.0000000000e+02 0.0000e+00 0.0000e+00
   -10002  1    1    2    0    0 -2.6853709019e+01 -9.8422639506e+01 -1.3888280868e+02 1.9923998645e+02 1.0000000000e+02 0.0000e+00 0.0000e+00
<mgrwt>
<rscale>  0 0.39600974E+03</rscale>
<asrwt>0</asrwt>
<pdfrwt beam="1">  1        4 0.27813878E-01 0.39600974E+03</pdfrwt>
<pdfrwt beam="2">  1       -4 0.88098842E-01 0.39600974E+03</pdfrwt>
<totfact> 0.26508721E+01</totfact>
</mgrwt>
</event>
<event>
 6      1 +2.6141198e-09 4.21242200e+02 7.81860800e-03 1.03666300e-01
       -4 -1    0    0    0  501 -0.0000000000e+00 +0.0000000000e+00 +3.9458048254e+02 3.9458252635e+02 1.2700000000e+00 0.0000e+00 -1.0000e+00
        4 -1    0    0  501    0 +0.0000000000e+00 -0.0000000000e+00 -1.1242041590e+02 1.1242758919e+02 1.2700000000e+00 0.0000e+00 -1.0000e+00
      -13  1    1    2    0    0 -3.9484350954e+01 -5.9571460456e+01 -1.8139122685e+00 7.1491777939e+01 1.0566000000e-01 0.0000e+00 1.0000e+00
       13  1    1    2    0    0 +1.0625551819e+01 +1.9602406982e+01 +5.9877527123e+01 6.3894335660e+01 1.0566000000e-01 0.0000e+00 -1.0000e+00
    10002  1    1    2    0    0 -3.6431149031e+01 +1.1012721281e+02 +1.5073159125e+02 2.1488425773e+02 1.0000000000e+02 0.0000e+00 0.0000e+00
   -10002  1    1    2    0    0 +6.5289948167e+01 -7.0158159341e+01 +7.3364860539e+01 1.5673974421e+02 1.0000000000e+02 0.0000e+00 0.0000e+00
<mgrwt>
<rscale>  0 0.42124216E+03</rscale>
<asrwt>0</asrwt>
<pdfrwt beam="1">  1        4 0.28106256E-01 0.42124216E+03</pdfrwt>
<pdfrwt beam="2">  1       -4 0.98646272E-01 0.42124216E+03</pdfrwt>
<totfact> 0.20051843E+01</totfact>
</mgrwt>
</event>
<event>
 6      1 +2.6141198e-09 7.24311700e+02 7.81860800e-03 9.67653600e-02
        4 -1    0    0  501    0 +0.0000000000e+00 +0.0000000000e+00 +1.7129275340e+02 1.7129746136e+02 1.2700000000e+00 0.0000e+00 1.0000e+00
       -4 -1    0    0    0  501 -0.0000000000e+00 -0.0000000000e+00 -7.6567265535e+02 7.6567370861e+02 1.2700000000e+00 0.0000e+00 1.0000e+00
      -13  1    1    2    0    0 -7.3215020623e+00 +1.3300825261e+02 -1.5012414964e+02 2.0070393899e+02 1.0566000000e-01 0.0000e+00 1.0000e+00
       13  1    1    2    0    0 +5.4012825524e+01 +4.1344291940e+01 -3.5629815966e+01 7.6786917811e+01 1.0566000000e-01 0.0000e+00 -1.0000e+00
    10002  1    1    2    0    0 +1.6059846712e+01 -3.1680773501e+02 -2.6078910683e+02 4.2265354356e+02 1.0000000000e+02 0.0000e+00 0.0000e+00
   -10002  1    1    2    0    0 -6.2751170173e+01 +1.4245519045e+02 -1.4783682951e+02 2.3682676961e+02 1.0000000000e+02 0.0000e+00 0.0000e+00
<mgrwt>
<rscale>  0 0.72431175E+03</rscale>
<asrwt>0</asrwt>
<pdfrwt beam="1">  1        4 0.42823911E-01 0.72431175E+03</pdfrwt>
<pdfrwt beam="2">  1       -4 0.19141887E+00 0.72431175E+03</pdfrwt>
<totfact> 0.15792151E+00</totfact>
</mgrwt>
</event>
<event>
 6      1 +2.6141198e-09 5.99512000e+02 7.81860800e-03 9.90641900e-02
       -4 -1    0    0    0  501 -0.0000000000e+00 +0.0000000000e+00 +2.4742770482e+02 2.4743096413e+02 1.2700000000e+00 0.0000e+00 -1.0000e+00
        4 -1    0    0  501    0 +0.0000000000e+00 -0.0000000000e+00 -3.6314435292e+02 3.6314657366e+02 1.2700000000e+00 0.0000e+00 -1.0000e+00
      -13  1    1    2    0    0 -6.6989261890e+00 -4.4894231152e+01 -7.0509582993e+01 8.3856902285e+01 1.0566000000e-01 0.0000e+00 1.0000e+00
       13  1    1    2    0    0 +3.2301385399e+01 +3.7171394832e+01 -2.0640196623e+01 5.3395889103e+01 1.0566000000e-01 0.0000e+00 -1.0000e+00
    10002  1    1    2    0    0 -6.3365326312e+01 +1.3954633752e+02 -1.7003278395e+02 2.4979890414e+02 1.0000000000e+02 0.0000e+00 0.0000e+00
   -10002  1    1    2    0    0 +3.7762867102e+01 -1.3182350120e+02 +1.4546591546e+02 2.2352584226e+02 1.0000000000e+02 0.0000e+00 0.0000e+00
<mgrwt>
<rscale>  0 0.59951196E+03</rscale>
<asrwt>0</asrwt>
<pdfrwt beam="1">  1        4 0.90786773E-01 0.59951196E+03</pdfrwt>
<pdfrwt beam="2">  1       -4 0.61857611E-01 0.59951196E+03</pdfrwt>
<totfact> 0.49876181E+00</totfact>
</mgrwt>
</event>
<event>
 6      1 +2.6141198e-09 3.63747300e+02 7.81860800e-03 1.05711000e-01
        4 -1    0    0  501    0 +0.0000000000e+00 +0.0000000000e+00 +7.8724959003e+01 7.8735202228e+01 1.2700000000e+00 0.0000e+00 1.0000e+00
       -4 -1    0    0    0  501 -0.0000000000e+00 -0.0000000000e+00 -4.2013356675e+02 4.2013548626e+02 1.2700000000e+00 0.0000e+00 1.0000e+00
      -13  1    1    2    0    0 -1.0395530690e+01 +3.4050301574e+01 -2.6309225808e+01 4.4268234912e+01 1.0566000000e-01 0.0000e+00 1.0000e+00
       13  1    1    2    0    0 +4.9607425714e+01 -2.8623441111e+01 -5.6700438081e+01 8.0592486682e+01 1.0566000000e-01 0.0000e+00 -1.0000e+00
    10002  1    1    2    0    0 -6.5858449522e+01 -4.0021011626e+01 -2.2819100257e+02 2.6078755798e+02 1.0000000000e+02 0.0000e+00 0.0000e+00
   -10002  1    1    2    0    0 +2.6646554498e+01 +3.4594151163e+01 -3.0207941289e+01 1.1322240890e+02 1.0000000000e+02 0.0000e+00 0.0000e+00
<mgrwt>
<rscale>  0 0.36374734E+03</rscale>
<asrwt>0</asrwt>
<pdfrwt beam="1">  1        4 0.19682761E-01 0.36374734E+03</pdfrwt>
<pdfrwt beam="2">  1       -4 0.10503491E+00 0.36374734E+03</pdfrwt>
<totfact> 0.33257961E+01</totfact>
</mgrwt>
</event>
<event>
 6      1 +2.6141198e-09 6.26048500e+02 7.81860800e-03 9.85279000e-02
        4 -1    0    0  501    0 +0.0000000000e+00 +0.0000000000e+00 +1.8571116803e+02 1.8571551048e+02 1.2700000000e+00 0.0000e+00 -1.0000e+00
       -4 -1    0    0    0  501 -0.0000000000e+00 -0.0000000000e+00 -5.2760477724e+02 5.2760630575e+02 1.2700000000e+00 0.0000e+00 -1.0000e+00
      -13  1    1    2    0    0 +2.1277056087e+01 -4.8732427053e+01 +1.5296199297e+01 5.5331251922e+01 1.0566000000e-01 0.0000e+00 1.0000e+00
       13  1    1    2    0    0 -4.3713554455e+01 +4.3552717107e+01 +2.2204805580e+01 6.5580321480e+01 1.0566000000e-01 0.0000e+00 -1.0000e+00
    10002  1    1    2    0    0 -1.2227707738e+02 -1.4229585922e+02 -1.1302097571e+02 2.4077694274e+02 1.0000000000e+02 0.0000e+00 0.0000e+00
   -10002  1    1    2    0    0 +1.4471357575e+02 +1.4747556917e+02 -2.6637363837e+02 3.5163330008e+02 1.0000000000e+02 0.0000e+00 0.0000e+00
<mgrwt>
<rscale>  0 0.62604854E+03</rscale>
<asrwt>0</asrwt>
<pdfrwt beam="1">  1        4 0.46428527E-01 0.62604854E+03</pdfrwt>
<pdfrwt beam="2">  1       -4 0.13190193E+00 0.62604854E+03</pdfrwt>
<totfact> 0.36880490E+00</totfact>
</mgrwt>
</event>
<event>
 6      1 +2.6141198e-09 8.35163600e+02 7.81860800e-03 9.51046900e-02
       -4 -1    0    0    0  501 -0.0000000000e+00 +0.0000000000e+00 +4.6426040151e+02 4.6426213857e+02 1.2700000000e+00 0.0000e+00 -1.0000e+00
        4 -1    0    0  501    0 +0.0000000000e+00 -0.0000000000e+00 -3.7559295209e+02 3.7559509923e+02 1.2700000000e+00 0.0000e+00 -1.0000e+00
      -13  1    1    2    0    0 -1.3927313455e+02 -5.5726921706e+01 -3.5411449281e+01 1.5413136512e+02 1.0566000000e-01 0.0000e+00 1.0000e+00
       13  1    1    2    0    0 +7.8501850319e+00 -1.9275271388e+01 -3.1869099310e+01 3.8063265059e+01 1.0566000000e-01 0.0000e+00 -1.0000e+00
    10002  1    1    2    0    0 +2.2624558588e+02 +2.1606278498e+02 -8.2098968189e+01 3.3854162634e+02 1.0000000000e+02 0.0000e+00 0.0000e+00
   -10002  1    1    2    0    0 -9.4822636370e+01 -1.4106059189e+02 +2.3804696620e+02 3.0912098128e+02 1.0000000000e+02 0.0000e+00 0.0000e+00
<mgrwt>
<rscale>  0 0.83516361E+03</rscale>
<asrwt>0</asrwt>
<pdfrwt beam="1">  1        4 0.93898724E-01 0.83516361E+03</pdfrwt>
<pdfrwt beam="2">  1       -4 0.11606559E+00 0.83516361E+03</pdfrwt>
<totfact> 0.10781192E+00</totfact>
</mgrwt>
</event>
<event>
 6      1 +2.6141198e-09 4.48063500e+02 7.81860800e-03 1.02830100e-01
        4 -1    0    0  501    0 +0.0000000000e+00 +0.0000000000e+00 +2.3641680902e+02 2.3642022013e+02 1.2700000000e+00 0.0000e+00 -1.0000e+00
       -4 -1    0    0    0  501 -0.0000000000e+00 -0.0000000000e+00 -2.1228863163e+02 2.1229243044e+02 1.2700000000e+00 0.0000e+00 -1.0000e+00
      -13  1    1    2    0    0 -2.9643877194e+01 +2.2967563364e+01 +1.5990804396e+00 3.7534472746e+01 1.0566000000e-01 0.0000e+00 1.0000e+00
       13  1    1    2    0    0 +3.2911673002e+01 -5.3645511671e+01 -5.0769018844e+00 6.3141153292e+01 1.0566000000e-01 0.0000e+00 -1.0000e+00
    10002  1    1    2    0    0 +9.0137397394e+01 +7.5599578052e+01 -7.4555366160e+01 1.7146005142e+02 1.0000000000e+02 0.0000e+00 0.0000e+00
   -10002  1    1    2    0    0 -9.3405193201e+01 -4.4921629745e+01 +1.0216136499e+02 1.7657697311e+02 1.0000000000e+02 0.0000e+00 0.0000e+00
<mgrwt>
<rscale>  0 0.44806347E+03</rscale>
<asrwt>0</asrwt>
<pdfrwt beam="1">  1        4 0.59105103E-01 0.44806347E+03</pdfrwt>
<pdfrwt beam="2">  1       -4 0.53073059E-01 0.44806347E+03</pdfrwt>
<totfact> 0.17801634E+01</totfact>
</mgrwt>
</event>
<event>
 6      1 +2.6141198e-09 8.77874300e+02 7.81860800e-03 9.45367000e-02
        4 -1    0    0  501    0 +0.0000000000e+00 +0.0000000000e+00 +3.1389700811e+02 3.1389957726e+02 1.2700000000e+00 0.0000e+00 1.0000e+00
       -4 -1    0    0    0  501 -0.0000000000e+00 -0.0000000000e+00 -6.1378098602e+02 6.1378229992e+02 1.2700000000e+00 0.0000e+00 1.0000e+00
      -13  1    1    2    0    0 +8.3631392686e+01 -2.5988506310e+02 -1.3733280490e+02 3.0560557313e+02 1.0566000000e-01 0.0000e+00 -1.0000e+00
       13  1    1    2    0    0 +3.6277032994e+01 -1.5991865887e+01 -4.2145526205e+01 5.7862072557e+01 1.0566000000e-01 0.0000e+00 1.0000e+00
    10002  1    1    2    0    0 +1.4935805483e+02 +5.3748567323e+01 -5.2483773834e+01 1.9481089176e+02 1.0000000000e+02 0.0000e+00 0.0000e+00
   -10002  1    1    2    0    0 -2.6926648051e+02 +2.2212836166e+02 -6.7921872969e+01 3.6940333974e+02 1.0000000000e+02 0.0000e+00 0.0000e+00
<mgrwt>
<rscale>  0 0.87787429E+03</rscale>
<asrwt>0</asrwt>
<pdfrwt beam="1">  1        4 0.78474738E-01 0.87787429E+03</pdfrwt>
<pdfrwt beam="2">  1       -4 0.15344573E+00 0.87787429E+03</pdfrwt>
<totfact> 0.79478867E-01</totfact>
</mgrwt>
</event>
<event>
 6      1 +2.6141198e-09 4.06406300e+02 7.81860800e-03 1.04158400e-01
       -4 -1    0    0    0  501 -0.0000000000e+00 +0.0000000000e+00 +6.0683786874e+02 6.0683919768e+02 1.2700000000e+00 0.0000e+00 -1.0000e+00
        4 -1    0    0  501    0 +0.0000000000e+00 -0.0000000000e+00 -6.8036400883e+01 6.8048253064e+01 1.2700000000e+00 0.0000e+00 -1.0000e+00
      -13  1    1    2    0    0 +1.9850459477e+01 -4.2571166439e+00 +1.1700188136e+01 2.3432228875e+01 1.0566000000e-01 0.0000e+00 -1.0000e+00
       13  1    1    2    0    0 -2.8647328559e+01 +5.1225431632e+01 +3.4247318338e+02 3.4746597931e+02 1.0566000000e-01 0.0000e+00 1.0000e+00
    10002  1    1    2    0    0 +4.7073169713e+01 -7.0810879942e+01 +9.0435358616e+01 1.5940080964e+02 1.0000000000e+02 0.0000e+00 0.0000e+00
   -10002  1    1    2    0    0 -3.8276300632e+01 +2.3842564954e+01 +9.4192737723e+01 1.4458843292e+02 1.0000000000e+02 0.0000e+00 0.0000e+00
<mgrwt>
<rscale>  0 0.40640626E+03</rscale>
<asrwt>0</asrwt>
<pdfrwt beam="1">  1        4 0.17010748E-01 0.40640626E+03</pdfrwt>
<pdfrwt beam="2">  1       -4 0.15171112E+00 0.40640626E+03</pdfrwt>
<totfact> 0.17419678E+01</totfact>
</mgrwt>
</event>
<event>
 6      1 +2.6141198e-09 5.51121200e+02 7.81860800e-03 1.00123500e-01
       -4 -1    0    0    0  501 -0.0000000000e+00 +0.0000000000e+00 +1.0464790133e+03 1.0464797839e+03 1.2700000000e+00 0.0000e+00 -1.0000e+00
        4 -1    0    0  501    0 +0.0000000000e+00 -0.0000000000e+00 -7.2554728879e+01 7.2565843085e+01 1.2700000000e+00 0.0000e+00 -1.0000e+00
      -13  1    1    2    0    0 +9.7173959201e+00 -6.0862934508e+01 +1.3715017851e+02 1.5036258581e+02 1.0566000000e-01 0.0000e+00 1.0000e+00
       13  1    1    2    0    0 +2.2979743437e+01 +3.3628555960e+01 +1.4060287741e+02 1.4638349867e+02 1.0566000000e-01 0.0000e+00 -1.0000e+00
    10002  1    1    2    0    0 -1.7492001362e+02 -9.3245947156e+01 +4.1241512270e+02 4.6837810715e+02 1.0000000000e+02 0.0000e+00 0.0000e+00
   -10002  1    1    2    0    0 +1.4222287426e+02 +1.2048032570e+02 +2.8375610576e+02 3.5392143535e+02 1.0000000000e+02 0.0000e+00 0.0000e+00
<mgrwt>
<rscale>  0 0.55112122E+03</rscale>
<asrwt>0</asrwt>
<pdfrwt beam="1">  1        4 0.18140168E-01 0.55112122E+03</pdfrwt>
<pdfrwt beam="2">  1       -4 0.26162123E+00 0.55112122E+03</pdfrwt>
<totfact> 0.30002362E+00</totfact>
</mgrwt>
</event>
<event>
 6      1 +2.6141198e-09 4.52818400e+02 7.81860800e-03 1.02688500e-01
       -4 -1    0    0    0  501 -0.0000000000e+00 +0.0000000000e+00 +9.9550997552e+01 9.9559098095e+01 1.2700000000e+00 0.0000e+00 1.0000e+00
        4 -1    0    0  501    0 +0.0000000000e+00 -0.0000000000e+00 -5.1489352051e+02 5.1489508675e+02 1.2700000000e+00 0.0000e+00 1.0000e+00
      -13  1    1    2    0    0 +2.1197449652e+01 -4.4763435354e+01 -5.1541331239e+01 7.1481585086e+01 1.0566000000e-01 0.0000e+00 -1.0000e+00
       13  1    1    2    0    0 -4.3858519018e+01 +2.8382100756e+01 -8.2718859190e+01 9.7834217754e+01 1.0566000000e-01 0.0000e+00 1.0000e+00
    10002  1    1    2    0    0 +7.1820144238e+01 -6.6602474636e+01 -2.7200195563e+02 3.0590699014e+02 1.0000000000e+02 0.0000e+00 0.0000e+00
   -10002  1    1    2    0    0 -4.9159074871e+01 +8.2983809234e+01 -9.0803768915e+00 1.3923139187e+02 1.0000000000e+02 0.0000e+00 0.0000e+00
<mgrwt>
<rscale>  0 0.45281843E+03</rscale>
<asrwt>0</asrwt>
<pdfrwt beam="1">  1        4 0.12872458E+00 0.45281843E+03</pdfrwt>
<pdfrwt beam="2">  1       -4 0.24888959E-01 0.45281843E+03</pdfrwt>
<totfact> 0.13260994E+01</totfact>
</mgrwt>
</event>
<event>
 6      1 +2.6141198e-09 8.94764300e+02 7.81860800e-03 9.43215000e-02
       -4 -1    0    0    0  501 -0.0000000000e+00 +0.0000000000e+00 +6.5670296740e+02 6.5670419542e+02 1.2700000000e+00 0.0000e+00 1.0000e+00
        4 -1    0    0  501    0 +0.0000000000e+00 -0.0000000000e+00 -3.0477845232e+02 3.0478109833e+02 1.2700000000e+00 0.0000e+00 1.0000e+00
      -13  1    1    2    0    0 -2.7304702872e+01 +6.3112870879e+01 +1.9173931463e+01 7.1389299487e+01 1.0566000000e-01 0.0000e+00 1.0000e+00
       13  1    1    2    0    0 -1.4199328246e+01 -3.6267224748e+01 -1.6257837236e+01 4.2204987255e+01 1.0566000000e-01 0.0000e+00 -1.0000e+00
    10002  1    1    2    0    0 -3.4738014901e+02 +4.4376124933e+01 +1.4631776287e+02 3.9249343449e+02 1.0000000000e+02 0.0000e+00 0.0000e+00
   -10002  1    1    2    0    0 +3.8888418013e+02 -7.1221771064e+01 +2.0269065797e+02 4.5539757252e+02 1.0000000000e+02 0.0000e+00 0.0000e+00
<mgrwt>
<rscale>  0 0.89476427E+03</rscale>
<asrwt>0</asrwt>
<pdfrwt beam="1">  1        4 0.76195098E-01 0.89476427E+03</pdfrwt>
<pdfrwt beam="2">  1       -4 0.16417622E+00 0.89476427E+03</pdfrwt>
<totfact> 0.70621777E-01</totfact>
</mgrwt>
</event>
<event>
 6      1 +2.6141198e-09 8.85555900e+02 7.81860800e-03 9.44382000e-02
       -4 -1    0    0    0  501 -0.0000000000e+00 +0.0000000000e+00 +3.0503643835e+02 3.0503908212e+02 1.2700000000e+00 0.0000e+00 -1.0000e+00
        4 -1    0    0  501    0 +0.0000000000e+00 -0.0000000000e+00 -6.4271159121e+02 6.4271284597e+02 1.2700000000e+00 0.0000e+00 -1.0000e+00
      -13  1    1    2    0    0 -2.9149434166e+00 -2.2260859573e+01 +2.1574255684e+01 3.1136834078e+01 1.0566000000e-01 0.0000e+00 -1.0000e+00
       13  1    1    2    0    0 -2.9754934717e+01 -7.6707030173e+01 -1.0722740925e+02 1.3515566239e+02 1.0566000000e-01 0.0000e+00 1.0000e+00
    10002  1    1    2    0    0 -1.6396774777e+02 -1.7030533289e+02 +1.0996802054e+02 2.7925310072e+02 1.0000000000e+02 0.0000e+00 0.0000e+00
   -10002  1    1    2    0    0 +1.9663762590e+02 +2.6927322263e+02 -3.6199001984e+02 5.0220633091e+02 1.0000000000e+02 0.0000e+00 0.0000e+00
<mgrwt>
<rscale>  0 0.88555588E+03</rscale>
<asrwt>0</asrwt>
<pdfrwt beam="1">  1        4 0.16067838E+00 0.88555588E+03</pdfrwt>
<pdfrwt beam="2">  1       -4 0.76259598E-01 0.88555588E+03</pdfrwt>
<totfact> 0.74817165E-01</totfact>
</mgrwt>
</event>
<event>
 6      1 +2.6141198e-09 6.08916200e+02 7.81860800e-03 9.88707900e-02
       -4 -1    0    0    0  501 -0.0000000000e+00 +0.0000000000e+00 +1.3227205445e+03 1.3227211541e+03 1.2700000000e+00 0.0000e+00 1.0000e+00
        4 -1    0    0  501    0 +0.0000000000e+00 -0.0000000000e+00 -7.0072459251e+01 7.0083967107e+01 1.2700000000e+00 0.0000e+00 1.0000e+00
      -13  1    1    2    0    0 +8.0611292534e+01 +9.8708800860e+01 +1.7786736287e+02 2.1881137491e+02 1.0566000000e-01 0.0000e+00 1.0000e+00
       13  1    1    2    0    0 -8.0993762524e+00 -1.8811996335e+01 +1.0078155186e+02 1.0284173988e+02 1.0566000000e-01 0.0000e+00 -1.0000e+00
    10002  1    1    2    0    0 -1.8520329598e+02 -9.9362260964e+01 +2.9709498585e+02 3.7741032096e+02 1.0000000000e+02 0.0000e+00 0.0000e+00
   -10002  1    1    2    0    0 +1.1269137970e+02 +1.9465456438e+01 +6.7690418462e+02 6.9374168551e+02 1.0000000000e+02 0.0000e+00 0.0000e+00
<mgrwt>
<rscale>  0 0.60891615E+03</rscale>
<asrwt>0</asrwt>
<pdfrwt beam="1">  1        4 0.17519630E-01 0.60891615E+03</pdfrwt>
<pdfrwt beam="2">  1       -4 0.33068165E+00 0.60891615E+03</pdfrwt>
<totfact> 0.12089295E+00</totfact>
</mgrwt>
</event>
<event>
 6      1 +2.6141198e-09 4.36163500e+02 7.81860800e-03 1.03193000e-01
        4 -1    0    0  501    0 +0.0000000000e+00 +0.0000000000e+00 +1.5962425004e+02 1.5962930214e+02 1.2700000000e+00 0.0000e+00 -1.0000e+00
       -4 -1    0    0    0  501 -0.0000000000e+00 -0.0000000000e+00 -2.9793635374e+02 2.9793906052e+02 1.2700000000e+00 0.0000e+00 -1.0000e+00
      -13  1    1    2    0    0 -2.6564013309e+00 +1.0552992930e+02 -1.0029928608e+02 1.4561449240e+02 1.0566000000e-01 0.0000e+00 -1.0000e+00
       13  1    1    2    0    0 +2.1231968780e+01 -1.7519611409e+01 -1.3196414238e+01 3.0526870049e+01 1.0566000000e-01 0.0000e+00 1.0000e+00
    10002  1    1    2    0    0 +5.9412462432e+01 -9.1515751539e+01 -4.0892755283e+01 1.5354865974e+02 1.0000000000e+02 0.0000e+00 0.0000e+00
   -10002  1    1    2    0    0 -7.7988029881e+01 +3.5054336513e+00 +1.6076351898e+01 1.2787834047e+02 1.0000000000e+02 0.0000e+00 0.0000e+00
<mgrwt>
<rscale>  0 0.43616347E+03</rscale>
<asrwt>0</asrwt>
<pdfrwt beam="1">  1        4 0.39907033E-01 0.43616347E+03</pdfrwt>
<pdfrwt beam="2">  1       -4 0.74485057E-01 0.43616347E+03</pdfrwt>
<totfact> 0.19257613E+01</totfact>
</mgrwt>
</event>
<event>
 6      1 +2.6141198e-09 5.29943700e+02 7.81860800e-03 1.00624600e-01
        4 -1    0    0  501    0 +0.0000000000e+00 +0.0000000000e+00 +8.5090833031e+01 8.5100310022e+01 1.2700000000e+00 0.0000e+00 -1.0000e+00
       -4 -1    0    0    0  501 -0.0000000000e+00 -0.0000000000e+00 -8.2506328458e+02 8.2506426202e+02 1.2700000000e+00 0.0000e+00 -1.0000e+00
      -13  1    1    2    0    0 -6.1347028188e+00 +4.8553553458e+01 +2.3302968232e+00 4.8995138324e+01 1.0566000000e-01 0.0000e+00 1.0000e+00
       13  1    1    2    0    0 +8.9874004713e+01 +6.1722949716e+01 -9.2114367411e+01 1.4273096052e+02 1.0566000000e-01 0.0000e+00 -1.0000e+00
    10002  1    1    2    0    0 +1.0555409200e+01 -7.0364325435e+01 -1.2941543617e+02 1.7835613271e+02 1.0000000000e+02 0.0000e+00 0.0000e+00
   -10002  1    1    2    0    0 -9.4294711093e+01 -3.9912177740e+01 -5.2077294480e+02 5.4008234048e+02 1.0000000000e+02 0.0000e+00 0.0000e+00
<mgrwt>
<rscale>  0 0.52994369E+03</rscale>
<asrwt>0</asrwt>
<pdfrwt beam="1">  1        4 0.21274018E-01 0.52994369E+03</pdfrwt>
<pdfrwt beam="2">  1       -4 0.20626710E+00 0.52994369E+03</pdfrwt>
<totfact> 0.49155468E+00</totfact>
</mgrwt>
</event>
<event>
 6      1 +2.6141198e-09 3.70816900e+02 7.81860800e-03 1.05438100e-01
       -4 -1    0    0    0  501 -0.0000000000e+00 +0.0000000000e+00 +1.4768764172e+02 1.4769310213e+02 1.2700000000e+00 0.0000e+00 -1.0000e+00
        4 -1    0    0  501    0 +0.0000000000e+00 -0.0000000000e+00 -2.3275202816e+02 2.3275549298e+02 1.2700000000e+00 0.0000e+00 -1.0000e+00
      -13  1    1    2    0    0 -2.5475820261e+01 -1.3335595037e+01 +2.1378812075e+01 3.5831833371e+01 1.0566000000e-01 0.0000e+00 -1.0000e+00
       13  1    1    2    0    0 +2.9575659517e+01 +4.3546558359e+00 -6.5349980518e+01 7.1863160111e+01 1.0566000000e-01 0.0000e+00 1.0000e+00
    10002  1    1    2    0    0 -5.8820576520e+01 -6.4167168395e+01 -3.5242673399e+01 1.3718356953e+02 1.0000000000e+02 0.0000e+00 0.0000e+00
   -10002  1    1    2    0    0 +5.4720737264e+01 +7.3148107596e+01 -5.8505445995e+00 1.3557003210e+02 1.0000000000e+02 0.0000e+00 0.0000e+00
<mgrwt>
<rscale>  0 0.37081691E+03</rscale>
<asrwt>0</asrwt>
<pdfrwt beam="1">  1        4 0.58189122E-01 0.37081691E+03</pdfrwt>
<pdfrwt beam="2">  1       -4 0.36923026E-01 0.37081691E+03</pdfrwt>
<totfact> 0.38057912E+01</totfact>
</mgrwt>
</event>
<event>
 6      1 +2.6141198e-09 4.88522400e+02 7.81860800e-03 1.01681900e-01
       -4 -1    0    0    0  501 -0.0000000000e+00 +0.0000000000e+00 +2.1462791122e+02 2.1463166862e+02 1.2700000000e+00 0.0000e+00 1.0000e+00
        4 -1    0    0  501    0 +0.0000000000e+00 -0.0000000000e+00 -2.7797823816e+02 2.7798113927e+02 1.2700000000e+00 0.0000e+00 1.0000e+00
      -13  1    1    2    0    0 -1.6332840331e+01 -2.4051392029e-01 -3.6382145455e+01 3.9880962779e+01 1.0566000000e-01 0.0000e+00 1.0000e+00
       13  1    1    2    0    0 +5.4727912856e+01 -1.1491083877e+01 +4.3784016057e+01 7.1022818026e+01 1.0566000000e-01 0.0000e+00 -1.0000e+00
    10002  1    1    2    0    0 -1.4500427495e+02 +8.1492959675e+01 +2.1578058057e+01 1.9527661105e+02 1.0000000000e+02 0.0000e+00 0.0000e+00
   -10002  1    1    2    0    0 +1.0660920243e+02 -6.9761361878e+01 -9.2330255599e+01 1.8643241605e+02 1.0000000000e+02 0.0000e+00 0.0000e+00
<mgrwt>
<rscale>  0 0.48852238E+03</rscale>
<asrwt>0</asrwt>
<pdfrwt beam="1">  1        4 0.69495392E-01 0.48852238E+03</pdfrwt>
<pdfrwt beam="2">  1       -4 0.53657810E-01 0.48852238E+03</pdfrwt>
<totfact> 0.12294298E+01</totfact>
</mgrwt>
</event>
<event>
 6      1 +2.6141198e-09 3.65465600e+02 7.81860800e-03 1.05644000e-01
       -4 -1    0    0    0  501 -0.0000000000e+00 +0.0000000000e+00 +1.0318630816e+02 1.0319412334e+02 1.2700000000e+00 0.0000e+00 -1.0000e+00
        4 -1    0    0  501    0 +0.0000000000e+00 -0.0000000000e+00 -3.2358053313e+02 3.2358302539e+02 1.2700000000e+00 0.0000e+00 -1.0000e+00
      -13  1    1    2    0    0 -4.5403601125e+00 +4.7824755699e+01 -8.0864204668e+00 4.8715741682e+01 1.0566000000e-01 0.0000e+00 -1.0000e+00
       13  1    1    2    0    0 -6.2867066544e+01 -4.7394717926e+01 -4.5078548784e+01 9.0722731813e+01 1.0566000000e-01 0.0000e+00 1.0000e+00
    10002  1    1    2    0    0 +8.4054702756e-02 +2.5958983872e+01 -1.1127091312e+02 1.5183903324e+02 1.0000000000e+02 0.0000e+00 0.0000e+00
   -10002  1    1    2    0    0 +6.7323371954e+01 -2.6389021645e+01 -5.5958342598e+01 1.3549964200e+02 1.0000000000e+02 0.0000e+00 0.0000e+00
<mgrwt>
<rscale>  0 0.36546562E+03</rscale>
<asrwt>0</asrwt>
<pdfrwt beam="1">  1        4 0.80896419E-01 0.36546562E+03</pdfrwt>
<pdfrwt beam="2">  1       -4 0.25797866E-01 0.36546562E+03</pdfrwt>
<totfact> 0.36908553E+01</totfact>
</mgrwt>
</event>
<event>
 6      1 +2.6141198e-09 4.55997400e+02 7.81860800e-03 1.02594900e-01
       -4 -1    0    0    0  501 -0.0000000000e+00 +0.0000000000e+00 +1.8603353780e+02 1.8603787272e+02 1.2700000000e+00 0.0000e+00 -1.0000e+00
        4 -1    0    0  501    0 +0.0000000000e+00 -0.0000000000e+00 -2.7942129804e+02 2.7942418417e+02 1.2700000000e+00 0.0000e+00 -1.0000e+00
      -13  1    1    2    0    0 -3.8631917048e+00 +1.8435778115e+01 -4.3620197608e+01 4.7513524056e+01 1.0566000000e-01 0.0000e+00 -1.0000e+00
       13  1    1    2    0    0 +4.7880424549e+01 +5.0249344126e+00 +3.7143899541e+01 6.0806787927e+01 1.0566000000e-01 0.0000e+00 1.0000e+00
    10002  1    1    2    0    0 +6.8912945372e+01 -9.3670511416e+01 -1.1058837902e+02 1.8908450048e+02 1.0000000000e+02 0.0000e+00 0.0000e+00
   -10002  1    1    2    0    0 -1.1293017822e+02 +7.0209798889e+01 +2.3676916841e+01 1.6805724442e+02 1.0000000000e+02 0.0000e+00 0.0000e+00
<mgrwt>
<rscale>  0 0.45599743E+03</rscale>
<asrwt>0</asrwt>
<pdfrwt beam="1">  1        4 0.69856227E-01 0.45599743E+03</pdfrwt>
<pdfrwt beam="2">  1       -4 0.46509287E-01 0.45599743E+03</pdfrwt>
<totfact> 0.16308414E+01</totfact>
</mgrwt>
</event>
<event>
 6      1 +2.6141198e-09 3.87959300e+02 7.81860800e-03 1.04803100e-01
       -4 -1    0    0    0  501 -0.0000000000e+00 +0.0000000000e+00 +9.6400305573e+01 9.6408670847e+01 1.2700000000e+00 0.0000e+00 1.0000e+00
        4 -1    0    0  501    0 +0.0000000000e+00 -0.0000000000e+00 -3.9030542587e+02 3.9030749206e+02 1.2700000000e+00 0.0000e+00 1.0000e+00
      -13  1    1    2    0    0 +1.2041133636e+01 +1.2005763979e+01 +4.2215512811e+01 4.5511404657e+01 1.0566000000e-01 0.0000e+00 -1.0000e+00
       13  1    1    2    0    0 -5.7262284457e+00 -3.8417423466e+01 -3.5671061265e+01 5.2736362160e+01 1.0566000000e-01 0.0000e+00 1.0000e+00
    10002  1    1    2    0    0 +3.7191737596e+01 +6.8764603069e+01 -1.2962474600e+02 1.8142318142e+02 1.0000000000e+02 0.0000e+00 0.0000e+00
   -10002  1    1    2    0    0 -4.3506642787e+01 -4.2352943582e+01 -1.7082482584e+02 2.0704521468e+02 1.0000000000e+02 0.0000e+00 0.0000e+00
<mgrwt>
<rscale>  0 0.38795928E+03</rscale>
<asrwt>0</asrwt>
<pdfrwt beam="1">  1        4 0.97577656E-01 0.38795928E+03</pdfrwt>
<pdfrwt beam="2">  1       -4 0.24101381E-01 0.38795928E+03</pdfrwt>
<totfact> 0.27362722E+01</totfact>
</mgrwt>
</event>
<event>
 6      1 +2.6141198e-09 5.67523900e+02 7.81860800e-03 9.97517300e-02
       -4 -1    0    0    0  501 -0.0000000000e+00 +0.0000000000e+00 +8.6520818757e+01 8.6530139133e+01 1.2700000000e+00 0.0000e+00 -1.0000e+00
        4 -1    0    0  501    0 +0.0000000000e+00 -0.0000000000e+00 -9.3059293126e+02 9.3059379786e+02 1.2700000000e+00 0.0000e+00 -1.0000e+00
      -13  1    1    2    0    0 -2.1785120677e+00 +2.1011851603e+01 -3.4923386724e+01 4.0815412860e+01 1.0566000000e-01 0.0000e+00 1.0000e+00
       13  1    1    2    0    0 -4.0719110257e+01 -4.1950385764e+01 -1.5514392269e+02 1.6579363293e+02 1.0566000000e-01 0.0000e+00 -1.0000e+00
    10002  1    1    2    0    0 -4.1989051829e+01 +1.5097808314e+01 +3.0387287130e+01 1.1364159234e+02 1.0000000000e+02 0.0000e+00 0.0000e+00
   -10002  1    1    2    0    0 +8.4886674154e+01 +5.8407258465e+00 -6.8439209022e+02 6.9687329887e+02 1.0000000000e+02 0.0000e+00 0.0000e+00
<mgrwt>
<rscale>  0 0.56752390E+03</rscale>
<asrwt>0</asrwt>
<pdfrwt beam="1">  1        4 0.23264948E+00 0.56752390E+03</pdfrwt>
<pdfrwt beam="2">  1       -4 0.21631481E-01 0.56752390E+03</pdfrwt>
<totfact> 0.32574150E+00</totfact>
</mgrwt>
</event>
<event>
 6      1 +2.6141198e-09 4.45967900e+02 7.81860800e-03 1.02893100e-01
        4 -1    0    0  501    0 +0.0000000000e+00 +0.0000000000e+00 +6.4622737410e+02 6.4622862203e+02 1.2700000000e+00 0.0000e+00 1.0000e+00
       -4 -1    0    0    0  501 -0.0000000000e+00 -0.0000000000e+00 -7.6935162614e+01 7.6945644103e+01 1.2700000000e+00 0.0000e+00 1.0000e+00
      -13  1    1    2    0    0 -2.4139302336e+01 -6.5315561321e+01 +2.0750247084e+02 2.1887465600e+02 1.0566000000e-01 0.0000e+00 -1.0000e+00
       13  1    1    2    0    0 +4.8094941204e+01 -1.5231043715e+01 +4.0917926472e+01 6.4956877487e+01 1.0566000000e-01 0.0000e+00 1.0000e+00
    10002  1    1    2    0    0 -1.6183779778e+00 +1.4562250972e+02 +1.6450934978e+02 2.4139565168e+02 1.0000000000e+02 0.0000e+00 0.0000e+00
   -10002  1    1    2    0    0 -2.2337260891e+01 -6.5075904687e+01 +1.5636246439e+02 1.9794708097e+02 1.0000000000e+02 0.0000e+00 0.0000e+00
<mgrwt>
<rscale>  0 0.44596793E+03</rscale>
<asrwt>0</asrwt>
<pdfrwt beam="1">  1        4 0.16155831E+00 0.44596793E+03</pdfrwt>
<pdfrwt beam="2">  1       -4 0.19235257E-01 0.44596793E+03</pdfrwt>
<totfact> 0.11835195E+01</totfact>
</mgrwt>
</event>
<event>
 6      1 +2.6141198e-09 5.70898500e+02 7.81860800e-03 9.96769200e-02
       -4 -1    0    0    0  501 -0.0000000000e+00 +0.0000000000e+00 +1.0349185731e+02 1.0349964941e+02 1.2700000000e+00 0.0000e+00 1.0000e+00
        4 -1    0    0  501    0 +0.0000000000e+00 -0.0000000000e+00 -7.8728280222e+02 7.8728382656e+02 1.2700000000e+00 0.0000e+00 1.0000e+00
      -13  1    1    2    0    0 +8.9062278616e+01 -1.1908636707e+02 -1.5162605660e+02 2.1237731634e+02 1.0566000000e-01 0.0000e+00 1.0000e+00
       13  1    1    2    0    0 +6.5547683881e+01 +1.5872590754e-02 -1.1922340277e+02 1.3605414380e+02 1.0566000000e-01 0.0000e+00 -1.0000e+00
    10002  1    1    2    0    0 -4.1766432601e+01 +1.0600583343e+02 -6.8950731104e+01 1.6654091069e+02 1.0000000000e+02 0.0000e+00 0.0000e+00
   -10002  1    1    2    0    0 -1.1284352990e+02 +1.3064661043e+01 -3.4399075444e+02 3.7581110514e+02 1.0000000000e+02 0.0000e+00 0.0000e+00
<mgrwt>
<rscale>  0 0.57089854E+03</rscale>
<asrwt>0</asrwt>
<pdfrwt beam="1">  1        4 0.19682178E+00 0.57089854E+03</pdfrwt>
<pdfrwt beam="2">  1       -4 0.25874069E-01 0.57089854E+03</pdfrwt>
<totfact> 0.39230147E+00</totfact>
</mgrwt>
</event>
<event>
 6      1 +2.6141198e-09 5.84808600e+02 7.81860800e-03 9.93743400e-02
        4 -1    0    0  501    0 +0.0000000000e+00 +0.0000000000e+00 +8.9771136370e+01 8.9780119321e+01 1.2700000000e+00 0.0000e+00 -1.0000e+00
       -4 -1    0    0    0  501 -0.0000000000e+00 -0.0000000000e+00 -9.5236793213e+02 9.5236877891e+02 1.2700000000e+00 0.0000e+00 -1.0000e+00
      -13  1    1    2    0    0 -9.2214785895e+00 -1.2612905437e+01 +2.5125364949e+00 1.5825455906e+01 1.0566000000e-01 0.0000e+00 1.0000e+00
       13  1    1    2    0    0 +4.8376107859e+01 +5.1845235480e+01 -1.3076203291e+02 1.4875112325e+02 1.0566000000e-01 0.0000e+00 -1.0000e+00
    10002  1    1    2    0    0 +1.3541729327e+02 -1.5323002396e+02 -4.9466564948e+02 5.4452859276e+02 1.0000000000e+02 0.0000e+00 0.0000e+00
   -10002  1    1    2    0    0 -1.7457192254e+02 +1.1399769391e+02 -2.3968164986e+02 3.3304372631e+02 1.0000000000e+02 0.0000e+00 0.0000e+00
<mgrwt>
<rscale>  0 0.58480860E+03</rscale>
<asrwt>0</asrwt>
<pdfrwt beam="1">  1        4 0.22444016E-01 0.58480860E+03</pdfrwt>
<pdfrwt beam="2">  1       -4 0.23809318E+00 0.58480860E+03</pdfrwt>
<totfact> 0.28151754E+00</totfact>
</mgrwt>
</event>
<event>
 6      1 +2.6141198e-09 4.72293200e+02 7.81860800e-03 1.02127500e-01
        4 -1    0    0  501    0 +0.0000000000e+00 +0.0000000000e+00 +4.4036585160e+01 4.4054894536e+01 1.2700000000e+00 0.0000e+00 -1.0000e+00
       -4 -1    0    0    0  501 -0.0000000000e+00 -0.0000000000e+00 -1.2660563367e+03 1.2660569737e+03 1.2700000000e+00 0.0000e+00 -1.0000e+00
      -13  1    1    2    0    0 -2.6131552002e+01 +1.5093836459e+01 -3.6684856957e+01 4.7502334712e+01 1.0566000000e-01 0.0000e+00 -1.0000e+00
       13  1    1    2    0    0 +7.6161262403e+01 +4.8986254487e+00 -2.1876330140e+02 2.3169360722e+02 1.0566000000e-01 0.0000e+00 1.0000e+00
    10002  1    1    2    0    0 -1.3994341356e+02 -8.4971085674e+01 -6.9491000449e+02 7.2090509690e+02 1.0000000000e+02 0.0000e+00 0.0000e+00
   -10002  1    1    2    0    0 +8.9913703158e+01 +6.4978623767e+01 -2.7166158868e+02 3.1001082937e+02 1.0000000000e+02 0.0000e+00 0.0000e+00
<mgrwt>
<rscale>  0 0.47229317E+03</rscale>
<asrwt>0</asrwt>
<pdfrwt beam="1">  1        4 0.11011519E-01 0.47229317E+03</pdfrwt>
<pdfrwt beam="2">  1       -4 0.31651633E+00 0.47229317E+03</pdfrwt>
<totfact> 0.33951172E+00</totfact>
</mgrwt>
</event>
<event>
 6      1 +2.6141198e-09 4.77528400e+02 7.81860800e-03 1.01981700e-01
       -4 -1    0    0    0  501 -0.0000000000e+00 +0.0000000000e+00 +1.0652796849e+02 1.0653553853e+02 1.2700000000e+00 0.0000e+00 1.0000e+00
        4 -1    0    0  501    0 +0.0000000000e+00 -0.0000000000e+00 -5.3512175075e+02 5.3512325779e+02 1.2700000000e+00 0.0000e+00 1.0000e+00
      -13  1    1    2    0    0 +2.5961029024e+01 -1.6343446397e+01 -8.3022762959e+01 8.8509172414e+01 1.0566000000e-01 0.0000e+00 -1.0000e+00
       13  1    1    2    0    0 -4.2877259493e+01 -2.6612214275e+01 -2.8350216421e+01 5.7882771749e+01 1.0566000000e-01 0.0000e+00 1.0000e+00
    10002  1    1    2    0    0 +4.3417686536e+01 -1.1920820545e+02 -5.6223347265e+01 1.7104606552e+02 1.0000000000e+02 0.0000e+00 0.0000e+00
   -10002  1    1    2    0    0 -2.6501456067e+01 +1.6216386612e+02 -2.6099745562e+02 3.2422078664e+02 1.0000000000e+02 0.0000e+00 0.0000e+00
<mgrwt>
<rscale>  0 0.47752841E+03</rscale>
<asrwt>0</asrwt>
<pdfrwt beam="1">  1        4 0.13378156E+00 0.47752841E+03</pdfrwt>
<pdfrwt beam="2">  1       -4 0.26633128E-01 0.47752841E+03</pdfrwt>
<totfact> 0.10609487E+01</totfact>
</mgrwt>
</event>
<event>
 6      1 +2.6141198e-09 7.35939800e+02 7.81860800e-03 9.65767100e-02
        4 -1    0    0  501    0 +0.0000000000e+00 +0.0000000000e+00 +8.9242969497e+02 8.9243059863e+02 1.2700000000e+00 0.0000e+00 1.0000e+00
       -4 -1    0    0    0  501 -0.0000000000e+00 -0.0000000000e+00 -1.5171904894e+02 1.5172436426e+02 1.2700000000e+00 0.0000e+00 1.0000e+00
      -13  1    1    2    0    0 -5.7829782463e+01 +5.0686339817e+01 +1.4077701142e+02 1.6041061964e+02 1.0566000000e-01 0.0000e+00 -1.0000e+00
       13  1    1    2    0    0 +3.9570501112e+01 +3.9549634434e+01 +1.4955635060e+02 1.5967814913e+02 1.0566000000e-01 0.0000e+00 1.0000e+00
    10002  1    1    2    0    0 +1.6303687943e+02 -2.4439898407e+02 +1.5389348510e+02 3.4640307768e+02 1.0000000000e+02 0.0000e+00 0.0000e+00
   -10002  1    1    2    0    0 -1.4477759808e+02 +1.5416300981e+02 +2.9648379892e+02 3.7766311644e+02 1.0000000000e+02 0.0000e+00 0.0000e+00
<mgrwt>
<rscale>  0 0.73593976E+03</rscale>
<asrwt>0</asrwt>
<pdfrwt beam="1">  1        4 0.22310820E+00 0.73593976E+03</pdfrwt>
<pdfrwt beam="2">  1       -4 0.37930540E-01 0.73593976E+03</pdfrwt>
<totfact> 0.12596007E+00</totfact>
</mgrwt>
</event>
<event>
 6      1 +2.6141198e-09 5.02979200e+02 7.81860800e-03 1.01300400e-01
       -4 -1    0    0    0  501 -0.0000000000e+00 +0.0000000000e+00 +1.4377723755e+02 1.4378284647e+02 1.2700000000e+00 0.0000e+00 -1.0000e+00
        4 -1    0    0  501    0 +0.0000000000e+00 -0.0000000000e+00 -4.3988078093e+02 4.3988261426e+02 1.2700000000e+00 0.0000e+00 -1.0000e+00
      -13  1    1    2    0    0 +6.7369578467e+01 +8.9369249296e+01 -6.4313855532e+00 1.1210217084e+02 1.0566000000e-01 0.0000e+00 -1.0000e+00
       13  1    1    2    0    0 -1.3710364092e+00 -2.6606378398e+01 -1.1186596878e+01 2.8895159214e+01 1.0566000000e-01 0.0000e+00 1.0000e+00
    10002  1    1    2    0    0 -1.4094583921e+02 +1.4545555720e+01 -2.2973167396e+02 2.8784361171e+02 1.0000000000e+02 0.0000e+00 0.0000e+00
   -10002  1    1    2    0    0 +7.4947297156e+01 -7.7308426618e+01 -4.8753886990e+01 1.5482451897e+02 1.0000000000e+02 0.0000e+00 0.0000e+00
<mgrwt>
<rscale>  0 0.50297919E+03</rscale>
<asrwt>0</asrwt>
<pdfrwt beam="1">  1        4 0.10997112E+00 0.50297919E+03</pdfrwt>
<pdfrwt beam="2">  1       -4 0.35945241E-01 0.50297919E+03</pdfrwt>
<totfact> 0.96639593E+00</totfact>
</mgrwt>
</event>
<event>
 6      1 +2.6141198e-09 5.97710300e+02 7.81860800e-03 9.91016800e-02
        4 -1    0    0  501    0 +0.0000000000e+00 +0.0000000000e+00 +3.3758820284e+02 3.3759059168e+02 1.2700000000e+00 0.0000e+00 -1.0000e+00
       -4 -1    0    0    0  501 -0.0000000000e+00 -0.0000000000e+00 -2.6456126787e+02 2.6456431611e+02 1.2700000000e+00 0.0000e+00 -1.0000e+00
      -13  1    1    2    0    0 -2.8329637538e+01 +1.6667100666e+01 +3.8853506552e+01 5.0891715859e+01 1.0566000000e-01 0.0000e+00 1.0000e+00
       13  1    1    2    0    0 -2.9671974995e+01 -5.7637186147e+01 -2.7387013020e+01 7.0374220942e+01 1.0566000000e-01 0.0000e+00 -1.0000e+00
    10002  1    1    2    0    0 -1.8583834505e+02 +6.8488992556e+00 +3.0258725177e+01 2.1330351230e+02 1.0000000000e+02 0.0000e+00 0.0000e+00
   -10002  1    1    2    0    0 +2.4383995758e+02 +3.4121186226e+01 +3.1301716251e+01 2.6758545869e+02 1.0000000000e+02 0.0000e+00 0.0000e+00
<mgrwt>
<rscale>  0 0.59771030E+03</rscale>
<asrwt>0</asrwt>
<pdfrwt beam="1">  1        4 0.84397730E-01 0.59771030E+03</pdfrwt>
<pdfrwt beam="2">  1       -4 0.66140997E-01 0.59771030E+03</pdfrwt>
<totfact> 0.51025705E+00</totfact>
</mgrwt>
</event>
<event>
 6      1 +2.6141198e-09 5.53701500e+02 7.81860800e-03 1.00064100e-01
        4 -1    0    0  501    0 +0.0000000000e+00 +0.0000000000e+00 +3.0104793240e+02 3.0105061120e+02 1.2700000000e+00 0.0000e+00 1.0000e+00
       -4 -1    0    0    0  501 -0.0000000000e+00 -0.0000000000e+00 -2.5459301612e+02 2.5459618371e+02 1.2700000000e+00 0.0000e+00 1.0000e+00
      -13  1    1    2    0    0 -3.1275334391e+01 -1.0226960972e+02 +1.9511110799e+00 1.0696278611e+02 1.0566000000e-01 0.0000e+00 -1.0000e+00
       13  1    1    2    0    0 -2.1515269053e+01 +1.4705995665e+01 +3.1866808515e+01 4.1166464020e+01 1.0566000000e-01 0.0000e+00 1.0000e+00
    10002  1    1    2    0    0 -1.0016699359e+02 -4.3122738731e+01 -7.5584580634e+01 1.6615061249e+02 1.0000000000e+02 0.0000e+00 0.0000e+00
   -10002  1    1    2    0    0 +1.5295759703e+02 +1.3068635279e+02 +8.8221577318e+01 2.4136693228e+02 1.0000000000e+02 0.0000e+00 0.0000e+00
<mgrwt>
<rscale>  0 0.55370146E+03</rscale>
<asrwt>0</asrwt>
<pdfrwt beam="1">  1        4 0.75262713E-01 0.55370146E+03</pdfrwt>
<pdfrwt beam="2">  1       -4 0.63648985E-01 0.55370146E+03</pdfrwt>
<totfact> 0.71797415E+00</totfact>
</mgrwt>
</event>
<event>
 6      1 +2.6141198e-09 5.39703900e+02 7.81860800e-03 1.00390600e-01
        4 -1    0    0  501    0 +0.0000000000e+00 +0.0000000000e+00 +4.2534685256e+02 4.2534874854e+02 1.2700000000e+00 0.0000e+00 -1.0000e+00
       -4 -1    0    0    0  501 -0.0000000000e+00 -0.0000000000e+00 -1.7119699430e+02 1.7120170489e+02 1.2700000000e+00 0.0000e+00 -1.0000e+00
      -13  1    1    2    0    0 -2.1262481078e+01 +9.4609819794e+00 -2.1981638481e+01 3.2012604954e+01 1.0566000000e-01 0.0000e+00 -1.0000e+00
       13  1    1    2    0    0 +5.9121893438e+01 -5.0585840764e+01 +3.6631882153e+01 8.6001346057e+01 1.0566000000e-01 0.0000e+00 1.0000e+00
    10002  1    1    2    0    0 +2.2652333914e+01 +1.5627599966e+02 -1.5827394459e+00 1.8691661607e+02 1.0000000000e+02 0.0000e+00 0.0000e+00
   -10002  1    1    2    0    0 -6.0511746274e+01 -1.1515114087e+02 +2.4108235404e+02 2.9161988634e+02 1.0000000000e+02 0.0000e+00 0.0000e+00
<mgrwt>
<rscale>  0 0.53970389E+03</rscale>
<asrwt>0</asrwt>
<pdfrwt beam="1">  1        4 0.10633754E+00 0.53970389E+03</pdfrwt>
<pdfrwt beam="2">  1       -4 0.42800075E-01 0.53970389E+03</pdfrwt>
<totfact> 0.74019911E+00</totfact>
</mgrwt>
</event>
<event>
 6      1 +2.6141198e-09 6.15769400e+02 7.81860800e-03 9.87321900e-02
       -4 -1    0    0    0  501 -0.0000000000e+00 +0.0000000000e+00 +1.0042933361e+02 1.0043736331e+02 1.2700000000e+00 0.0000e+00 1.0000e+00
        4 -1    0    0  501    0 +0.0000000000e+00 -0.0000000000e+00 -9.4383135191e+02 9.4383220635e+02 1.2700000000e+00 0.0000e+00 1.0000e+00
      -13  1    1    2    0    0 -7.5571488864e+01 +1.0169413456e+02 -2.6468021911e+02 2.9344228817e+02 1.0566000000e-01 0.0000e+00 1.0000e+00
       13  1    1    2    0    0 +2.9724685475e+01 +3.4184160734e+01 -5.0352445764e+01 6.7731039636e+01 1.0566000000e-01 0.0000e+00 -1.0000e+00
    10002  1    1    2    0    0 -8.2445515324e+01 +1.6954458805e+01 -4.1025403610e+02 4.3057297965e+02 1.0000000000e+02 0.0000e+00 0.0000e+00
   -10002  1    1    2    0    0 +1.2829231871e+02 -1.5283275410e+02 -1.1811531734e+02 2.5252326221e+02 1.0000000000e+02 0.0000e+00 0.0000e+00
<mgrwt>
<rscale>  0 0.61576941E+03</rscale>
<asrwt>0</asrwt>
<pdfrwt beam="1">  1        4 0.23595892E+00 0.61576941E+03</pdfrwt>
<pdfrwt beam="2">  1       -4 0.25108447E-01 0.61576941E+03</pdfrwt>
<totfact> 0.23485444E+00</totfact>
</mgrwt>
</event>
<event>
 6      1 +2.6141198e-09 5.27876700e+02 7.81860800e-03 1.00674800e-01
        4 -1    0    0  501    0 +0.0000000000e+00 +0.0000000000e+00 +6.3984712364e+01 6.3997314915e+01 1.2700000000e+00 0.0000e+00 1.0000e+00
       -4 -1    0    0    0  501 -0.0000000000e+00 -0.0000000000e+00 -1.0886314512e+03 1.0886321920e+03 1.2700000000e+00 0.0000e+00 1.0000e+00
      -13  1    1    2    0    0 +6.4950551041e+01 -7.4409294235e+01 -3.7182087616e+01 1.0553594626e+02 1.0566000000e-01 0.0000e+00 1.0000e+00
       13  1    1    2    0    0 -1.9392453346e+01 +8.1224324891e+00 -4.5446145042e+01 5.0073989451e+01 1.0566000000e-01 0.0000e+00 -1.0000e+00
    10002  1    1    2    0    0 -1.1054020623e+02 +1.1291875650e+02 -4.2396138922e+02 4.6337138703e+02 1.0000000000e+02 0.0000e+00 0.0000e+00
   -10002  1    1    2    0    0 +6.4982108536e+01 -4.6631894758e+01 -5.1805711692e+02 5.3364818414e+02 1.0000000000e+02 0.0000e+00 0.0000e+00
<mgrwt>
<rscale>  0 0.52787673E+03</rscale>
<asrwt>0</asrwt>
<pdfrwt beam="1">  1        4 0.15997850E-01 0.52787673E+03</pdfrwt>
<pdfrwt beam="2">  1       -4 0.27215947E+00 0.52787673E+03</pdfrwt>
<totfact> 0.32546969E+00</totfact>
</mgrwt>
</event>
<event>
 6      1 +2.6141198e-09 3.78066100e+02 7.81860800e-03 1.05165100e-01
        4 -1    0    0  501    0 +0.0000000000e+00 +0.0000000000e+00 +8.1819413911e+01 8.1829269780e+01 1.2700000000e+00 0.0000e+00 -1.0000e+00
       -4 -1    0    0    0  501 -0.0000000000e+00 -0.0000000000e+00 -4.3669895813e+02 4.3670080482e+02 1.2700000000e+00 0.0000e+00 -1.0000e+00
      -13  1    1    2    0    0 -2.6827691676e+01 +1.8333117025e+01 -1.4848869109e+02 1.5200240381e+02 1.0566000000e-01 0.0000e+00 1.0000e+00
       13  1    1    2    0    0 -2.8284810534e+00 -5.2424618707e+01 -4.1764501418e+01 6.7086702813e+01 1.0566000000e-01 0.0000e+00 -1.0000e+00
    10002  1    1    2    0    0 -1.3502531573e+01 -1.5384453294e+01 -8.0421589710e+00 1.0238982412e+02 1.0000000000e+02 0.0000e+00 0.0000e+00
   -10002  1    1    2    0    0 +4.3158704302e+01 +4.9475954976e+01 -1.5658419274e+02 1.9705114386e+02 1.0000000000e+02 0.0000e+00 0.0000e+00
<mgrwt>
<rscale>  0 0.37806606E+03</rscale>
<asrwt>0</asrwt>
<pdfrwt beam="1">  1        4 0.20456318E-01 0.37806606E+03</pdfrwt>
<pdfrwt beam="2">  1       -4 0.10917620E+00 0.37806606E+03</pdfrwt>
<totfact> 0.28325095E+01</totfact>
</mgrwt>
</event>
<event>
 6      1 +2.6141198e-09 8.14883500e+02 7.81860800e-03 9.53872000e-02
        4 -1    0    0  501    0 +0.0000000000e+00 +0.0000000000e+00 +3.6820540695e+02 3.6820759716e+02 1.2700000000e+00 0.0000e+00 1.0000e+00
       -4 -1    0    0    0  501 -0.0000000000e+00 -0.0000000000e+00 -4.5085469527e+02 4.5085648398e+02 1.2700000000e+00 0.0000e+00 1.0000e+00
      -13  1    1    2    0    0 -3.3376779592e+01 -1.5018921301e+01 -8.7954199170e+00 3.7642369592e+01 1.0566000000e-01 0.0000e+00 1.0000e+00
       13  1    1    2    0    0 +1.7183201555e+01 -7.5884178952e+01 +9.3346280994e+01 1.2152041133e+02 1.0566000000e-01 0.0000e+00 -1.0000e+00
    10002  1    1    2    0    0 -1.6363774948e+02 +3.4758451176e+01 +1.7151927339e+02 2.5962342754e+02 1.0000000000e+02 0.0000e+00 0.0000e+00
   -10002  1    1    2    0    0 +1.7983132752e+02 +5.6144649077e+01 -3.3871942279e+02 4.0027787268e+02 1.0000000000e+02 0.0000e+00 0.0000e+00
<mgrwt>
<rscale>  0 0.81488347E+03</rscale>
<asrwt>0</asrwt>
<pdfrwt beam="1">  1        4 0.92051849E-01 0.81488347E+03</pdfrwt>
<pdfrwt beam="2">  1       -4 0.11271417E+00 0.81488347E+03</pdfrwt>
<totfact> 0.12145996E+00</totfact>
</mgrwt>
</event>
<event>
 6      1 +2.6141198e-09 4.02084700e+02 7.81860800e-03 1.04306000e-01
       -4 -1    0    0    0  501 -0.0000000000e+00 +0.0000000000e+00 +4.7536778924e+02 4.7536948571e+02 1.2700000000e+00 0.0000e+00 1.0000e+00
        4 -1    0    0  501    0 +0.0000000000e+00 -0.0000000000e+00 -8.5018168931e+01 8.5027654021e+01 1.2700000000e+00 0.0000e+00 1.0000e+00
      -13  1    1    2    0    0 +3.3102194435e+01 -1.8920626765e+01 +2.1554259582e+01 4.3798888841e+01 1.0566000000e-01 0.0000e+00 -1.0000e+00
       13  1    1    2    0    0 -1.4159135640e+01 +2.4548582945e+01 +1.5896094247e+02 1.6146735410e+02 1.0566000000e-01 0.0000e+00 1.0000e+00
    10002  1    1    2    0    0 -9.4242245683e+01 -2.7927859181e+01 +1.7312651551e+02 2.2278769392e+02 1.0000000000e+02 0.0000e+00 0.0000e+00
   -10002  1    1    2    0    0 +7.5299186888e+01 +2.2299903001e+01 +3.6707902741e+01 1.3234320286e+02 1.0000000000e+02 0.0000e+00 0.0000e+00
<mgrwt>
<rscale>  0 0.40208473E+03</rscale>
<asrwt>0</asrwt>
<pdfrwt beam="1">  1        4 0.21255940E-01 0.40208473E+03</pdfrwt>
<pdfrwt beam="2">  1       -4 0.11884334E+00 0.40208473E+03</pdfrwt>
<totfact> 0.21573841E+01</totfact>
</mgrwt>
</event>
<event>
 6      1 +2.6141198e-09 4.12847300e+02 7.81860800e-03 1.03942000e-01
       -4 -1    0    0    0  501 -0.0000000000e+00 +0.0000000000e+00 +1.0493488210e+02 1.0494256706e+02 1.2700000000e+00 0.0000e+00 1.0000e+00
        4 -1    0    0  501    0 +0.0000000000e+00 -0.0000000000e+00 -4.0604474331e+02 4.0604672942e+02 1.2700000000e+00 0.0000e+00 1.0000e+00
      -13  1    1    2    0    0 -1.7176351867e+01 +4.2073350602e+01 -5.4384318442e+01 7.0872132399e+01 1.0566000000e-01 0.0000e+00 -1.0000e+00
       13  1    1    2    0    0 +3.6120297954e+01 -4.5103260551e+01 -5.3431160673e+01 7.8701207942e+01 1.0566000000e-01 0.0000e+00 1.0000e+00
    10002  1    1    2    0    0 -3.0459510690e+01 +3.9899424123e+01 +2.8158721533e+01 1.1538049850e+02 1.0000000000e+02 0.0000e+00 0.0000e+00
   -10002  1    1    2    0    0 +1.1515564604e+01 -3.6869514173e+01 -2.2145310363e+02 2.4603545763e+02 1.0000000000e+02 0.0000e+00 0.0000e+00
<mgrwt>
<rscale>  0 0.41284732E+03</rscale>
<asrwt>0</asrwt>
<pdfrwt beam="1">  1        4 0.10151239E+00 0.41284732E+03</pdfrwt>
<pdfrwt beam="2">  1       -4 0.26234930E-01 0.41284732E+03</pdfrwt>
<totfact> 0.21334084E+01</totfact>
</mgrwt>
</event>
<event>
 6      1 +2.6141198e-09 9.12301300e+02 7.81860800e-03 9.41033300e-02
       -4 -1    0    0    0  501 -0.0000000000e+00 +0.0000000000e+00 +4.6763962728e+02 4.6764135179e+02 1.2700000000e+00 0.0000e+00 1.0000e+00
        4 -1    0    0  501    0 +0.0000000000e+00 -0.0000000000e+00 -4.4494049818e+02 4.4494231067e+02 1.2700000000e+00 0.0000e+00 1.0000e+00
      -13  1    1    2    0    0 +1.1150399761e+02 +2.0217515422e+02 -1.7121451773e+02 2.8744104911e+02 1.0566000000e-01 0.0000e+00 1.0000e+00
       13  1    1    2    0    0 -1.8132437819e+01 -1.9890147155e+01 +1.5018262297e+01 3.0821463650e+01 1.0566000000e-01 0.0000e+00 -1.0000e+00
    10002  1    1    2    0    0 +8.4282397723e+01 -3.0273821448e+02 +1.1166861510e+02 3.4817212506e+02 1.0000000000e+02 0.0000e+00 0.0000e+00
   -10002  1    1    2    0    0 -1.7765395752e+02 +1.2045320742e+02 +6.7226769431e+01 2.4614902463e+02 1.0000000000e+02 0.0000e+00 0.0000e+00
<mgrwt>
<rscale>  0 0.91230132E+03</rscale>
<asrwt>0</asrwt>
<pdfrwt beam="1">  1        4 0.11123557E+00 0.91230132E+03</pdfrwt>
<pdfrwt beam="2">  1       -4 0.11691035E+00 0.91230132E+03</pdfrwt>
<totfact> 0.70260147E-01</totfact>
</mgrwt>
</event>
<event>
 6      1 +2.6141198e-09 5.31917700e+02 7.81860800e-03 1.00576800e-01
       -4 -1    0    0    0  501 -0.0000000000e+00 +0.0000000000e+00 +3.1099513293e+02 3.1099772604e+02 1.2700000000e+00 0.0000e+00 -1.0000e+00
        4 -1    0    0  501    0 +0.0000000000e+00 -0.0000000000e+00 -2.2743912930e+02 2.2744267505e+02 1.2700000000e+00 0.0000e+00 -1.0000e+00
      -13  1    1    2    0    0 -3.6164409638e+01 +7.2661274798e-01 +1.8088388797e+01 4.0442471041e+01 1.0566000000e-01 0.0000e+00 -1.0000e+00
       13  1    1    2    0    0 +2.6349585824e+01 +8.7337240780e+01 -1.1512874115e+01 9.1949180174e+01 1.0566000000e-01 0.0000e+00 1.0000e+00
    10002  1    1    2    0    0 -5.9179250188e+00 -1.1830097617e+02 -1.1083073271e+02 1.9056126079e+02 1.0000000000e+02 0.0000e+00 0.0000e+00
   -10002  1    1    2    0    0 +1.5732748833e+01 +3.0237122645e+01 +1.8781122166e+02 2.1548748909e+02 1.0000000000e+02 0.0000e+00 0.0000e+00
<mgrwt>
<rscale>  0 0.53191772E+03</rscale>
<asrwt>0</asrwt>
<pdfrwt beam="1">  1        4 0.56860550E-01 0.53191772E+03</pdfrwt>
<pdfrwt beam="2">  1       -4 0.77749550E-01 0.53191772E+03</pdfrwt>
<totfact> 0.84952407E+00</totfact>
</mgrwt>
</event>
<event>
 7      1 +2.6141198e-09 5.54330200e+02 7.81860800e-03 1.00049700e-01
        4 -1    0    0  501    0 +0.0000000000e+00 +0.0000000000e+00 +3.3259757933e+02 3.3260000402e+02 1.2700000000e+00 0.0000e+00 -1.0000e+00
       -4 -1    0    0    0  501 -0.0000000000e+00 -0.0000000000e+00 -2.3096630489e+02 2.3096979650e+02 1.2700000000e+00 0.0000e+00 -1.0000e+00
       25  2    1    2    0    0 +2.0468056338e+01 -1.1745741676e+01 -2.1948722525e+01 1.2908905385e+02 1.2500133450e+02 0.0000e+00 0.0000e+00
      -13  1    3    3    0    0 +1.6533990978e+01 +5.6261394706e+01 -1.5555523073e+01 6.0668796379e+01 1.0566000000e-01 0.0000e+00 1.0000e+00
       13  1    3    3    0    0 +3.9340653592e+00 -6.8007136383e+01 -6.3931994521e+00 6.8420257472e+01 1.0566000000e-01 0.0000e+00 1.0000e+00
    10002  1    1    2    0    0 +5.8931445015e+01 -1.1632605416e+01 -1.1440706696e+02 1.6339280795e+02 1.0000000000e+02 0.0000e+00 0.0000e+00
   -10002  1    1    2    0    0 -7.9399501353e+01 +2.3378347092e+01 +2.3798706391e+02 2.7108793872e+02 1.0000000000e+02 0.0000e+00 0.0000e+00
<mgrwt>
<rscale>  0 0.55433023E+03</rscale>
<asrwt>0</asrwt>
<pdfrwt beam="1">  1        4 0.83150134E-01 0.55433023E+03</pdfrwt>
<pdfrwt beam="2">  1       -4 0.57742316E-01 0.55433023E+03</pdfrwt>
<totfact> 0.70681260E+00</totfact>
</mgrwt>
</event>
<event>
 6      1 +2.6141198e-09 4.00310100e+02 7.81860800e-03 1.04367200e-01
       -4 -1    0    0    0  501 -0.0000000000e+00 +0.0000000000e+00 +2.7119943018e+02 2.7120240381e+02 1.2700000000e+00 0.0000e+00 -1.0000e+00
        4 -1    0    0  501    0 +0.0000000000e+00 -0.0000000000e+00 -1.4771519303e+02 1.4772065242e+02 1.2700000000e+00 0.0000e+00 -1.0000e+00
      -13  1    1    2    0    0 +1.2804605846e+01 -1.6705626639e+01 -2.0344722536e+01 2.9273790177e+01 1.0566000000e-01 0.0000e+00 1.0000e+00
       13  1    1    2    0    0 -1.3269856060e+01 +5.2762181597e+01 +7.5903958641e+01 9.3388216538e+01 1.0566000000e-01 0.0000e+00 -1.0000e+00
    10002  1    1    2    0    0 -7.9007745477e+01 -6.1674341692e-01 +9.7473616375e+01 1.6044846558e+02 1.0000000000e+02 0.0000e+00 0.0000e+00
   -10002  1    1    2    0    0 +7.9472995691e+01 -3.5439811542e+01 -2.9548615325e+01 1.3581258393e+02 1.0000000000e+02 0.0000e+00 0.0000e+00
<mgrwt>
<rscale>  0 0.40031009E+03</rscale>
<asrwt>0</asrwt>
<pdfrwt beam="1">  1        4 0.36929853E-01 0.40031009E+03</pdfrwt>
<pdfrwt beam="2">  1       -4 0.67800911E-01 0.40031009E+03</pdfrwt>
<totfact> 0.27514873E+01</totfact>
</mgrwt>
</event>
<event>
 6      1 +2.6141198e-09 4.13304200e+02 7.81860800e-03 1.03926800e-01
       -4 -1    0    0    0  501 -0.0000000000e+00 +0.0000000000e+00 +1.4120442341e+02 1.4121013451e+02 1.2700000000e+00 0.0000e+00 -1.0000e+00
        4 -1    0    0  501    0 +0.0000000000e+00 -0.0000000000e+00 -3.0242139503e+02 3.0242406166e+02 1.2700000000e+00 0.0000e+00 -1.0000e+00
      -13  1    1    2    0    0 +1.4713478001e+01 +5.7184308813e+01 +2.2001825191e+00 5.9087930887e+01 1.0566000000e-01 0.0000e+00 1.0000e+00
       13  1    1    2    0    0 -3.0725373758e+01 -1.3106054639e+01 -6.3527153414e+01 7.1774143295e+01 1.0566000000e-01 0.0000e+00 -1.0000e+00
    10002  1    1    2    0    0 +8.8472124966e+01 +3.1898181004e+01 -9.6389439514e+01 1.6773710054e+02 1.0000000000e+02 0.0000e+00 0.0000e+00
   -10002  1    1    2    0    0 -7.2460229209e+01 -7.5976435178e+01 -3.5005612158e+00 1.4503502145e+02 1.0000000000e+02 0.0000e+00 0.0000e+00
<mgrwt>
<rscale>  0 0.41330423E+03</rscale>
<asrwt>0</asrwt>
<pdfrwt beam="1">  1        4 0.75606395E-01 0.41330423E+03</pdfrwt>
<pdfrwt beam="2">  1       -4 0.35302154E-01 0.41330423E+03</pdfrwt>
<totfact> 0.23689963E+01</totfact>
</mgrwt>
</event>
<event>
 6      1 +2.6141198e-09 3.34393400e+02 7.81860800e-03 1.06920900e-01
       -4 -1    0    0    0  501 -0.0000000000e+00 +0.0000000000e+00 +1.3636186457e+02 1.3636777849e+02 1.2700000000e+00 0.0000e+00 1.0000e+00
        4 -1    0    0  501    0 +0.0000000000e+00 -0.0000000000e+00 -2.0499170611e+02 2.0499564013e+02 1.2700000000e+00 0.0000e+00 1.0000e+00
      -13  1    1    2    0    0 +1.0449265417e+01 -3.9997972773e+01 +7.3220955145e-01 4.1346974116e+01 1.0566000000e-01 0.0000e+00 1.0000e+00
       13  1    1    2    0    0 -2.3365354098e+01 +5.5801445765e+01 -1.9339492556e+01 6.3511953662e+01 1.0566000000e-01 0.0000e+00 -1.0000e+00
    10002  1    1    2    0    0 +5.8727406369e+01 -3.1170588768e+01 -2.5123414496e+01 1.2268536921e+02 1.0000000000e+02 0.0000e+00 0.0000e+00
   -10002  1    1    2    0    0 -4.5811317687e+01 +1.5367115775e+01 -2.4899144036e+01 1.1381912163e+02 1.0000000000e+02 0.0000e+00 0.0000e+00
<mgrwt>
<rscale>  0 0.33439337E+03</rscale>
<asrwt>0</asrwt>
<pdfrwt beam="1">  1        4 0.51249157E-01 0.33439337E+03</pdfrwt>
<pdfrwt beam="2">  1       -4 0.34091697E-01 0.33439337E+03</pdfrwt>
<totfact> 0.57642884E+01</totfact>
</mgrwt>
</event>
<event>
 6      1 +2.6141198e-09 4.83757400e+02 7.81860800e-03 1.01810800e-01
       -4 -1    0    0    0  501 -0.0000000000e+00 +0.0000000000e+00 +9.0956848090e+01 9.0965713950e+01 1.2700000000e+00 0.0000e+00 -1.0000e+00
        4 -1    0    0  501    0 +0.0000000000e+00 -0.0000000000e+00 -6.4317972613e+02 6.4318097998e+02 1.2700000000e+00 0.0000e+00 -1.0000e+00
      -13  1    1    2    0    0 -2.4833470661e+01 +3.1825807960e+01 -1.5543034352e+02 1.6058700498e+02 1.0566000000e-01 0.0000e+00 1.0000e+00
       13  1    1    2    0    0 +3.3683100417e+01 -2.5705359650e+01 -5.1951723156e+01 6.7039611211e+01 1.0566000000e-01 0.0000e+00 -1.0000e+00
    10002  1    1    2    0    0 +5.9156021321e+01 +1.2733007343e+02 -2.4805713469e+02 3.0206741719e+02 1.0000000000e+02 0.0000e+00 0.0000e+00
   -10002  1    1    2    0    0 -6.8005651077e+01 -1.3345052174e+02 -9.6783676672e+01 2.0445266054e+02 1.0000000000e+02 0.0000e+00 0.0000e+00
<mgrwt>
<rscale>  0 0.48375744E+03</rscale>
<asrwt>0</asrwt>
<pdfrwt beam="1">  1        4 0.16079618E+00 0.48375744E+03</pdfrwt>
<pdfrwt beam="2">  1       -4 0.22740479E-01 0.48375744E+03</pdfrwt>
<totfact> 0.88277826E+00</totfact>
</mgrwt>
</event>
<event>
 6      1 +2.6141198e-09 4.10179600e+02 7.81860800e-03 1.04031100e-01
        4 -1    0    0  501    0 +0.0000000000e+00 +0.0000000000e+00 +2.4169478771e+01 2.4202822234e+01 1.2700000000e+00 0.0000e+00 -1.0000e+00
       -4 -1    0    0    0  501 -0.0000000000e+00 -0.0000000000e+00 -1.7390532912e+03 1.7390537549e+03 1.2700000000e+00 0.0000e+00 -1.0000e+00
      -13  1    1    2    0    0 +4.6781659554e+01 -4.6680292486e+01 -2.5042342514e+02 2.5899705867e+02 1.0566000000e-01 0.0000e+00 1.0000e+00
       13  1    1    2    0    0 -2.1739503316e+01 +6.9482983196e+00 -1.0851421448e+01 2.5271512924e+01 1.0566000000e-01 0.0000e+00 -1.0000e+00
    10002  1    1    2    0    0 +3.6233309087e+01 +9.5262286525e+01 -7.2897631434e+02 7.4282852853e+02 1.0000000000e+02 0.0000e+00 0.0000e+00
   -10002  1    1    2    0    0 -6.1275465325e+01 -5.5530292359e+01 -7.2463265147e+02 7.3615947701e+02 1.0000000000e+02 0.0000e+00 0.0000e+00
<mgrwt>
<rscale>  0 0.41017955E+03</rscale>
<asrwt>0</asrwt>
<pdfrwt beam="1">  1        4 0.60466015E-02 0.41017955E+03</pdfrwt>
<pdfrwt beam="2">  1       -4 0.43476712E+00 0.41017955E+03</pdfrwt>
<totfact> 0.15700401E+00</totfact>
</mgrwt>
</event>
<event>
 6      1 +2.6141198e-09 8.82866000e+02 7.81860800e-03 9.44725700e-02
       -4 -1    0    0    0  501 -0.0000000000e+00 +0.0000000000e+00 +5.3939996805e+02 5.3940146313e+02 1.2700000000e+00 0.0000e+00 1.0000e+00
        4 -1    0    0  501    0 +0.0000000000e+00 -0.0000000000e+00 -3.6125589320e+02 3.6125812554e+02 1.2700000000e+00 0.0000e+00 1.0000e+00
      -13  1    1    2    0    0 +1.8598528472e+01 +5.5630668316e+01 -9.9829912991e+00 5.9500821826e+01 1.0566000000e-01 0.0000e+00 -1.0000e+00
       13  1    1    2    0    0 +1.3538109275e+02 +1.2422820647e+01 -3.2394456856e+01 1.3975614028e+02 1.0566000000e-01 0.0000e+00 1.0000e+00
    10002  1    1    2    0    0 +1.1991069556e+02 +8.5877918574e+01 +3.1194088259e+02 3.5925019978e+02 1.0000000000e+02 0.0000e+00 0.0000e+00
   -10002  1    1    2    0    0 -2.7389031678e+02 -1.5393140754e+02 -9.1419359583e+01 3.4215242679e+02 1.0000000000e+02 0.0000e+00 0.0000e+00
<mgrwt>
<rscale>  0 0.88286601E+03</rscale>
<asrwt>0</asrwt>
<pdfrwt beam="1">  1        4 0.90314440E-01 0.88286601E+03</pdfrwt>
<pdfrwt beam="2">  1       -4 0.13485046E+00 0.88286601E+03</pdfrwt>
<totfact> 0.80760446E-01</totfact>
</mgrwt>
</event>
<event>
 6      1 +2.6141198e-09 3.79675000e+02 7.81860800e-03 1.05105400e-01
        4 -1    0    0  501    0 +0.0000000000e+00 +0.0000000000e+00 +1.2156776413e+02 1.2157439769e+02 1.2700000000e+00 0.0000e+00 1.0000e+00
       -4 -1    0    0    0  501 -0.0000000000e+00 -0.0000000000e+00 -2.9642995628e+02 2.9643267681e+02 1.2700000000e+00 0.0000e+00 1.0000e+00
      -13  1    1    2    0    0 -5.9421311874e+00 +3.5447524224e+01 -1.2473338949e+01 3.8045121175e+01 1.0566000000e-01 0.0000e+00 1.0000e+00
       13  1    1    2    0    0 +1.7931842254e+01 -6.1254711746e+01 -2.9343174485e+01 7.0247588788e+01 1.0566000000e-01 0.0000e+00 -1.0000e+00
    10002  1    1    2    0    0 +4.2244482160e+01 +6.3096012333e+01 +6.6526438873e+00 1.2573766626e+02 1.0000000000e+02 0.0000e+00 0.0000e+00
   -10002  1    1    2    0    0 -5.4234193227e+01 -3.7288824812e+01 -1.3969832261e+02 1.8397669828e+02 1.0000000000e+02 0.0000e+00 0.0000e+00
<mgrwt>
<rscale>  0 0.37967503E+03</rscale>
<asrwt>0</asrwt>
<pdfrwt beam="1">  1        4 0.30393111E-01 0.37967503E+03</pdfrwt>
<pdfrwt beam="2">  1       -4 0.74108657E-01 0.37967503E+03</pdfrwt>
<totfact> 0.32958799E+01</totfact>
</mgrwt>
</event>
<event>
 6      1 +2.6141198e-09 4.70154100e+02 7.81860800e-03 1.02187700e-01
       -4 -1    0    0    0  501 -0.0000000000e+00 +0.0000000000e+00 +4.6285936972e+02 4.6286111204e+02 1.2700000000e+00 0.0000e+00 -1.0000e+00
        4 -1    0    0  501    0 +0.0000000000e+00 -0.0000000000e+00 -1.1938559321e+02 1.1939234802e+02 1.2700000000e+00 0.0000e+00 -1.0000e+00
      -13  1    1    2    0    0 -4.2938121739e+01 +3.1081978197e+01 +4.2260926505e+01 6.7792099394e+01 1.0566000000e-01 0.0000e+00 -1.0000e+00
       13  1    1    2    0    0 +6.9995835798e+01 +5.7505255660e+01 +5.3075955841e+01 1.0499209356e+02 1.0566000000e-01 0.0000e+00 1.0000e+00
    10002  1    1    2    0    0 -9.3359631417e+01 -4.0423718765e+01 +1.5726970401e+01 1.4351806651e+02 1.0000000000e+02 0.0000e+00 0.0000e+00
   -10002  1    1    2    0    0 +6.6301917358e+01 -4.8163515092e+01 +2.3240992377e+02 2.6595120059e+02 1.0000000000e+02 0.0000e+00 0.0000e+00
<mgrwt>
<rscale>  0 0.47015408E+03</rscale>
<asrwt>0</asrwt>
<pdfrwt beam="1">  1        4 0.29847460E-01 0.47015408E+03</pdfrwt>
<pdfrwt beam="2">  1       -4 0.11571590E+00 0.47015408E+03</pdfrwt>
<totfact> 0.12242846E+01</totfact>
</mgrwt>
</event>
<event>
 6      1 +2.6141198e-09 3.79729300e+02 7.81860800e-03 1.05103400e-01
        4 -1    0    0  501    0 +0.0000000000e+00 +0.0000000000e+00 +9.3713286826e+01 9.3721891934e+01 1.2700000000e+00 0.0000e+00 -1.0000e+00
       -4 -1    0    0    0  501 -0.0000000000e+00 -0.0000000000e+00 -3.8464162085e+02 3.8464371747e+02 1.2700000000e+00 0.0000e+00 -1.0000e+00
      -13  1    1    2    0    0 -3.2167306480e+01 +3.6184693284e+00 -1.1203502070e+02 1.1661769143e+02 1.0566000000e-01 0.0000e+00 1.0000e+00
       13  1    1    2    0    0 -1.6357995739e+01 +3.1674500698e+01 +4.0642535739e+00 3.5880180326e+01 1.0566000000e-01 0.0000e+00 -1.0000e+00
    10002  1    1    2    0    0 +1.5094634939e+01 +6.5085801821e+01 -1.1019650199e+02 1.6311737692e+02 1.0000000000e+02 0.0000e+00 0.0000e+00
   -10002  1    1    2    0    0 +3.3430667279e+01 -1.0037877185e+02 -7.2761064906e+01 1.6275036073e+02 1.0000000000e+02 0.0000e+00 0.0000e+00
<mgrwt>
<rscale>  0 0.37972933E+03</rscale>
<asrwt>0</asrwt>
<pdfrwt beam="1">  1        4 0.23429660E-01 0.37972933E+03</pdfrwt>
<pdfrwt beam="2">  1       -4 0.96161739E-01 0.37972933E+03</pdfrwt>
<totfact> 0.29805757E+01</totfact>
</mgrwt>
</event>
<event>
 6      1 +2.6141198e-09 4.59793100e+02 7.81860800e-03 1.02484100e-01
        4 -1    0    0  501    0 +0.0000000000e+00 +0.0000000000e+00 +1.4039461628e+02 1.4040036033e+02 1.2700000000e+00 0.0000e+00 1.0000e+00
       -4 -1    0    0    0  501 -0.0000000000e+00 -0.0000000000e+00 -3.7644174048e+02 3.7644388277e+02 1.2700000000e+00 0.0000e+00 1.0000e+00
      -13  1    1    2    0    0 +3.5663630661e+00 -5.8456409377e+01 -3.4419044654e+01 6.7930497876e+01 1.0566000000e-01 0.0000e+00 1.0000e+00
       13  1    1    2    0    0 -3.3237535276e+00 +3.8714806029e+01 -5.7479159018e+01 6.9381182094e+01 1.0566000000e-01 0.0000e+00 -1.0000e+00
    10002  1    1    2    0    0 -8.9759134807e+01 +9.3252424127e+00 +4.9658082307e+01 1.4356039693e+02 1.0000000000e+02 0.0000e+00 0.0000e+00
   -10002  1    1    2    0    0 +8.9516525269e+01 +1.0416360936e+01 -1.9380700284e+02 2.3597216620e+02 1.0000000000e+02 0.0000e+00 0.0000e+00
<mgrwt>
<rscale>  0 0.45979313E+03</rscale>
<asrwt>0</asrwt>
<pdfrwt beam="1">  1        4 0.35099641E-01 0.45979313E+03</pdfrwt>
<pdfrwt beam="2">  1       -4 0.94111419E-01 0.45979313E+03</pdfrwt>
<totfact> 0.14620749E+01</totfact>
</mgrwt>
</event>
<event>
 6      1 +2.6141198e-09 4.39030600e+02 7.81860800e-03 1.03104500e-01
       -4 -1    0    0    0  501 -0.0000000000e+00 +0.0000000000e+00 +3.0239067831e+02 3.0239334521e+02 1.2700000000e+00 0.0000e+00 1.0000e+00
        4 -1    0    0  501    0 +0.0000000000e+00 -0.0000000000e+00 -1.5934741721e+02 1.5935247808e+02 1.2700000000e+00 0.0000e+00 1.0000e+00
      -13  1    1    2    0    0 -1.9142923304e+01 +9.5899289125e+00 +1.1193556174e+01 2.4160403826e+01 1.0566000000e-01 0.0000e+00 -1.0000e+00
       13  1    1    2    0    0 +6.2958694320e+01 +8.7440365425e+01 -5.0833301357e+00 1.0786781775e+02 1.0566000000e-01 0.0000e+00 1.0000e+00
    10002  1    1    2    0    0 -5.8507732109e+01 -8.6417997085e+01 -1.6713478163e+01 1.4550108346e+02 1.0000000000e+02 0.0000e+00 0.0000e+00
   -10002  1    1    2    0    0 +1.4691961093e+01 -1.0612297253e+01 +1.5364651322e+02 1.8421651826e+02 1.0000000000e+02 0.0000e+00 0.0000e+00
<mgrwt>
<rscale>  0 0.43903056E+03</rscale>
<asrwt>0</asrwt>
<pdfrwt beam="1">  1        4 0.39837821E-01 0.43903056E+03</pdfrwt>
<pdfrwt beam="2">  1       -4 0.75598635E-01 0.43903056E+03</pdfrwt>
<totfact> 0.18702042E+01</totfact>
</mgrwt>
</event>
<event>
 6      1 +2.6141198e-09 8.85227200e+02 7.81860800e-03 9.44423900e-02
       -4 -1    0    0    0  501 -0.0000000000e+00 +0.0000000000e+00 +1.8826480797e+02 1.8826909151e+02 1.2700000000e+00 0.0000e+00 1.0000e+00
        4 -1    0    0  501    0 +0.0000000000e+00 -0.0000000000e+00 -1.0405750976e+03 1.0405758726e+03 1.2700000000e+00 0.0000e+00 1.0000e+00
      -13  1    1    2    0    0 +8.3935122081e+01 +6.3807205145e+01 +3.3200680242e+01 1.1053850225e+02 1.0566000000e-01 0.0000e+00 1.0000e+00
       13  1    1    2    0    0 +7.9535529906e+01 -3.2747016222e+01 -1.7684500993e+01 8.7812415571e+01 1.0566000000e-01 0.0000e+00 -1.0000e+00
    10002  1    1    2    0    0 -1.2419323882e+02 +4.4641845928e+01 -1.3513806586e+01 1.6613090605e+02 1.0000000000e+02 0.0000e+00 0.0000e+00
   -10002  1    1    2    0    0 -3.9277413172e+01 -7.5702034851e+01 -8.5431266229e+02 8.6436314024e+02 1.0000000000e+02 0.0000e+00 0.0000e+00
<mgrwt>
<rscale>  0 0.88522716E+03</rscale>
<asrwt>0</asrwt>
<pdfrwt beam="1">  1        4 0.26014439E+00 0.88522716E+03</pdfrwt>
<pdfrwt beam="2">  1       -4 0.47066837E-01 0.88522716E+03</pdfrwt>
<totfact> 0.47493589E-01</totfact>
</mgrwt>
</event>
<event>
 6      1 +2.6141198e-09 7.08375300e+02 7.81860800e-03 9.70301600e-02
        4 -1    0    0  501    0 +0.0000000000e+00 +0.0000000000e+00 +2.0926769871e+02 2.0927155235e+02 1.2700000000e+00 0.0000e+00 1.0000e+00
       -4 -1    0    0    0  501 -0.0000000000e+00 -0.0000000000e+00 -5.9945610795e+02 5.9945745325e+02 1.2700000000e+00 0.0000e+00 1.0000e+00
      -13  1    1    2    0    0 -1.6095636660e+01 +7.5258414153e+01 -7.6034778751e+01 1.0818593792e+02 1.0566000000e-01 0.0000e+00 1.0000e+00
       13  1    1    2    0    0 -5.8557377264e+01 -9.8112651388e+00 -5.7612035874e+01 8.2730799569e+01 1.0566000000e-01 0.0000e+00 -1.0000e+00
    10002  1    1    2    0    0 +2.4064413109e+02 -3.1101071965e+00 -3.1229249324e+02 4.0675038037e+02 1.0000000000e+02 0.0000e+00 0.0000e+00
   -10002  1    1    2    0    0 -1.6599111716e+02 -6.2337041818e+01 +5.5750898625e+01 2.1106188774e+02 1.0000000000e+02 0.0000e+00 0.0000e+00
<mgrwt>
<rscale>  0 0.70837533E+03</rscale>
<asrwt>0</asrwt>
<pdfrwt beam="1">  1        4 0.52317576E-01 0.70837533E+03</pdfrwt>
<pdfrwt beam="2">  1       -4 0.14986467E+00 0.70837533E+03</pdfrwt>
<totfact> 0.20633673E+00</totfact>
</mgrwt>
</event>
<event>
 6      1 +2.6141198e-09 6.07431900e+02 7.81860800e-03 9.89010600e-02
       -4 -1    0    0    0  501 -0.0000000000e+00 +0.0000000000e+00 +9.3705600605e+01 9.3714206419e+01 1.2700000000e+00 0.0000e+00 1.0000e+00
        4 -1    0    0  501    0 +0.0000000000e+00 -0.0000000000e+00 -9.8434143699e+02 9.8434225627e+02 1.2700000000e+00 0.0000e+00 1.0000e+00
      -13  1    1    2    0    0 -4.0818476356e+01 -8.5679931421e+01 -1.2517292823e+02 1.5708428243e+02 1.0566000000e-01 0.0000e+00 1.0000e+00
       13  1    1    2    0    0 +3.7556134903e+01 +4.7205776271e+00 -9.0030621548e+01 9.7664072731e+01 1.0566000000e-01 0.0000e+00 -1.0000e+00
    10002  1    1    2    0    0 +1.6992015565e+02 -1.4660302365e+01 -1.3046805555e+02 2.3687485574e+02 1.0000000000e+02 0.0000e+00 0.0000e+00
   -10002  1    1    2    0    0 -1.6665781420e+02 +9.5619656160e+01 -5.4496423105e+02 5.8643325179e+02 1.0000000000e+02 0.0000e+00 0.0000e+00
<mgrwt>
<rscale>  0 0.60743193E+03</rscale>
<asrwt>0</asrwt>
<pdfrwt beam="1">  1        4 0.24608651E+00 0.60743193E+03</pdfrwt>
<pdfrwt beam="2">  1       -4 0.23427581E-01 0.60743193E+03</pdfrwt>
<totfact> 0.23204305E+00</totfact>
</mgrwt>
</event>
<event>
 6      1 +2.6141198e-09 4.76612600e+02 7.81860800e-03 1.02007000e-01
       -4 -1    0    0    0  501 -0.0000000000e+00 +0.0000000000e+00 +5.8265507884e+02 5.8265646293e+02 1.2700000000e+00 0.0000e+00 -1.0000e+00
        4 -1    0    0  501    0 +0.0000000000e+00 -0.0000000000e+00 -9.7461802092e+01 9.7470076265e+01 1.2700000000e+00 0.0000e+00 -1.0000e+00
      -13  1    1    2    0    0 +1.9638507108e+00 -2.6926084593e+01 +1.0323736003e+02 1.0670911119e+02 1.0566000000e-01 0.0000e+00 1.0000e+00
       13  1    1    2    0    0 +3.7677880294e+01 -1.0446998639e+02 +6.2559570315e+01 1.2746494311e+02 1.0566000000e-01 0.0000e+00 -1.0000e+00
    10002  1    1    2    0    0 -5.3536421009e+01 +1.4827467786e+02 +1.2031632126e+02 2.2209805409e+02 1.0000000000e+02 0.0000e+00 0.0000e+00
   -10002  1    1    2    0    0 +1.3894690005e+01 -1.6878606881e+01 +1.9908002515e+02 2.2385443081e+02 1.0000000000e+02 0.0000e+00 0.0000e+00
<mgrwt>
<rscale>  0 0.47661262E+03</rscale>
<asrwt>0</asrwt>
<pdfrwt beam="1">  1        4 0.24366658E-01 0.47661262E+03</pdfrwt>
<pdfrwt beam="2">  1       -4 0.14566498E+00 0.47661262E+03</pdfrwt>
<totfact> 0.10078224E+01</totfact>
</mgrwt>
</event>
<event>
 6      1 +2.6141198e-09 6.59097000e+02 7.81860800e-03 9.78985800e-02
       -4 -1    0    0    0  501 -0.0000000000e+00 +0.0000000000e+00 +1.3272931100e+03 1.3272937176e+03 1.2700000000e+00 0.0000e+00 -1.0000e+00
        4 -1    0    0  501    0 +0.0000000000e+00 -0.0000000000e+00 -8.1816769225e+01 8.1826625413e+01 1.2700000000e+00 0.0000e+00 -1.0000e+00
      -13  1    1    2    0    0 -1.4317462964e+01 -1.2683080517e+00 +7.0306367999e-01 1.4391101890e+01 1.0566000000e-01 0.0000e+00 1.0000e+00
       13  1    1    2    0    0 +6.9363189754e+01 -6.6159646330e+00 +2.7702564743e+02 2.8565406277e+02 1.0566000000e-01 0.0000e+00 -1.0000e+00
    10002  1    1    2    0    0 +1.4367141138e+02 +1.6583120454e+02 +2.8191686836e+02 3.7096978787e+02 1.0000000000e+02 0.0000e+00 0.0000e+00
   -10002  1    1    2    0    0 -1.9871713817e+02 -1.5794693186e+02 +6.8583076134e+02 7.3810539050e+02 1.0000000000e+02 0.0000e+00 0.0000e+00
<mgrwt>
<rscale>  0 0.65909698E+03</rscale>
<asrwt>0</asrwt>
<pdfrwt beam="1">  1        4 0.20455500E-01 0.65909698E+03</pdfrwt>
<pdfrwt beam="2">  1       -4 0.33182458E+00 0.65909698E+03</pdfrwt>
<totfact> 0.89187704E-01</totfact>
</mgrwt>
</event>
<event>
 6      1 +2.6141198e-09 4.67944300e+02 7.81860800e-03 1.02250200e-01
       -4 -1    0    0    0  501 -0.0000000000e+00 +0.0000000000e+00 +5.0296001404e+02 5.0296161745e+02 1.2700000000e+00 0.0000e+00 -1.0000e+00
        4 -1    0    0  501    0 +0.0000000000e+00 -0.0000000000e+00 -1.0883610561e+02 1.0884351513e+02 1.2700000000e+00 0.0000e+00 -1.0000e+00
      -13  1    1    2    0    0 +5.3881189515e+01 -1.0900711633e+02 +2.3519215071e+02 2.6476610983e+02 1.0566000000e-01 0.0000e+00 -1.0000e+00
       13  1    1    2    0    0 -9.9666692725e+00 +1.4662663444e+01 +1.6422943683e+01 2.4167176891e+01 1.0566000000e-01 0.0000e+00 1.0000e+00
    10002  1    1    2    0    0 +5.2942843089e+01 +3.9100934951e+00 +1.0106858506e+02 1.5176657192e+02 1.0000000000e+02 0.0000e+00 0.0000e+00
   -10002  1    1    2    0    0 -9.6857363331e+01 +9.0434359391e+01 +4.1440228969e+01 1.7110527393e+02 1.0000000000e+02 0.0000e+00 0.0000e+00
<mgrwt>
<rscale>  0 0.46794430E+03</rscale>
<asrwt>0</asrwt>
<pdfrwt beam="1">  1        4 0.27210154E-01 0.46794430E+03</pdfrwt>
<pdfrwt beam="2">  1       -4 0.12574113E+00 0.46794430E+03</pdfrwt>
<totfact> 0.11897308E+01</totfact>
</mgrwt>
</event>
<event>
 6      1 +2.6141198e-09 7.51263700e+02 7.81860800e-03 9.63337000e-02
        4 -1    0    0  501    0 +0.0000000000e+00 +0.0000000000e+00 +6.8584311768e+02 6.8584429353e+02 1.2700000000e+00 0.0000e+00 1.0000e+00
       -4 -1    0    0    0  501 -0.0000000000e+00 -0.0000000000e+00 -2.0572780509e+02 2.0573172504e+02 1.2700000000e+00 0.0000e+00 1.0000e+00
      -13  1    1    2    0    0 +1.5054249426e+02 -1.7218399359e+02 +1.2075270233e+02 2.5863409774e+02 1.0566000000e-01 0.0000e+00 1.0000e+00
       13  1    1    2    0    0 +1.1720874695e+01 +1.4545424098e+01 +1.3144899645e+01 2.2841799765e+01 1.0566000000e-01 0.0000e+00 -1.0000e+00
    10002  1    1    2    0    0 -2.5454187430e+02 +7.2444710434e+01 +7.1330920617e+01 2.9176686254e+02 1.0000000000e+02 0.0000e+00 0.0000e+00
   -10002  1    1    2    0    0 +9.2278505344e+01 +8.5193859060e+01 +2.7488678999e+02 3.1833325853e+02 1.0000000000e+02 0.0000e+00 0.0000e+00
<mgrwt>
<rscale>  0 0.75126366E+03</rscale>
<asrwt>0</asrwt>
<pdfrwt beam="1">  1        4 0.17146141E+00 0.75126366E+03</pdfrwt>
<pdfrwt beam="2">  1       -4 0.51432589E-01 0.75126366E+03</pdfrwt>
<totfact> 0.14808925E+00</totfact>
</mgrwt>
</event>
<event>
 6      1 +2.6141198e-09 4.55956000e+02 7.81860800e-03 1.02596100e-01
        4 -1    0    0  501    0 +0.0000000000e+00 +0.0000000000e+00 +1.9754503170e+02 1.9754911402e+02 1.2700000000e+00 0.0000e+00 -1.0000e+00
       -4 -1    0    0    0  501 -0.0000000000e+00 -0.0000000000e+00 -2.6309102053e+02 2.6309408580e+02 1.2700000000e+00 0.0000e+00 -1.0000e+00
      -13  1    1    2    0    0 -3.8020635173e+01 +3.1993919910e+00 +3.9456053716e+01 5.4887121868e+01 1.0566000000e-01 0.0000e+00 1.0000e+00
       13  1    1    2    0    0 +4.3259710748e+01 +3.9432460526e+01 -2.2540110123e+01 6.2724710007e+01 1.0566000000e-01 0.0000e+00 -1.0000e+00
    10002  1    1    2    0    0 +5.1336158395e+01 -8.2365044621e+01 +6.3443511946e+01 1.5311590689e+02 1.0000000000e+02 0.0000e+00 0.0000e+00
   -10002  1    1    2    0    0 -5.6575233971e+01 +3.9733192104e+01 -1.4590544437e+02 1.8991546106e+02 1.0000000000e+02 0.0000e+00 0.0000e+00
<mgrwt>
<rscale>  0 0.45595601E+03</rscale>
<asrwt>0</asrwt>
<pdfrwt beam="1">  1        4 0.49387152E-01 0.45595601E+03</pdfrwt>
<pdfrwt beam="2">  1       -4 0.65773648E-01 0.45595601E+03</pdfrwt>
<totfact> 0.16439326E+01</totfact>
</mgrwt>
</event>
<event>
 6      1 +2.6141198e-09 3.05340400e+02 7.81860800e-03 1.08260100e-01
       -4 -1    0    0    0  501 -0.0000000000e+00 +0.0000000000e+00 +3.7738397190e+01 3.7759760625e+01 1.2700000000e+00 0.0000e+00 1.0000e+00
        4 -1    0    0  501    0 +0.0000000000e+00 -0.0000000000e+00 -6.1742838354e+02 6.1742968968e+02 1.2700000000e+00 0.0000e+00 1.0000e+00
      -13  1    1    2    0    0 +2.8885599548e+01 -3.9422032376e+01 -1.0382256948e+02 1.1475021392e+02 1.0566000000e-01 0.0000e+00 -1.0000e+00
       13  1    1    2    0    0 -2.9411740599e+01 +2.6734194506e+01 -4.7130161481e+01 6.1652501378e+01 1.0566000000e-01 0.0000e+00 1.0000e+00
    10002  1    1    2    0    0 -2.9464588580e+01 +2.7875640929e+00 -2.5976191308e+02 2.7991460123e+02 1.0000000000e+02 0.0000e+00 0.0000e+00
   -10002  1    1    2    0    0 +2.9990729631e+01 +9.9002737771e+00 -1.6897534231e+02 1.9887213378e+02 1.0000000000e+02 0.0000e+00 0.0000e+00
<mgrwt>
<rscale>  0 0.30534036E+03</rscale>
<asrwt>0</asrwt>
<pdfrwt beam="1">  1        4 0.15435990E+00 0.30534036E+03</pdfrwt>
<pdfrwt beam="2">  1       -4 0.94374350E-02 0.30534036E+03</pdfrwt>
<totfact> 0.45729474E+01</totfact>
</mgrwt>
</event>
<event>
 6      1 +2.6141198e-09 5.10986300e+02 7.81860800e-03 1.01095000e-01
        4 -1    0    0  501    0 +0.0000000000e+00 +0.0000000000e+00 +1.8759290135e+02 1.8759720024e+02 1.2700000000e+00 0.0000e+00 -1.0000e+00
       -4 -1    0    0    0  501 -0.0000000000e+00 -0.0000000000e+00 -3.4796077499e+02 3.4796309263e+02 1.2700000000e+00 0.0000e+00 -1.0000e+00
      -13  1    1    2    0    0 +5.3919876364e+00 -8.9468139206e+00 -3.6064911469e+01 3.7547410208e+01 1.0566000000e-01 0.0000e+00 1.0000e+00
       13  1    1    2    0    0 +4.1320445866e+01 +5.0440247889e+01 +4.8685240689e+01 8.1374822142e+01 1.0566000000e-01 0.0000e+00 -1.0000e+00
    10002  1    1    2    0    0 -2.6237202871e+01 +1.0048434177e+02 -1.9270518912e+02 2.4066737143e+02 1.0000000000e+02 0.0000e+00 0.0000e+00
   -10002  1    1    2    0    0 -2.0475230632e+01 -1.4197777573e+02 +1.9716986261e+01 1.7597068909e+02 1.0000000000e+02 0.0000e+00 0.0000e+00
<mgrwt>
<rscale>  0 0.51098627E+03</rscale>
<asrwt>0</asrwt>
<pdfrwt beam="1">  1        4 0.46899053E-01 0.51098627E+03</pdfrwt>
<pdfrwt beam="2">  1       -4 0.86991020E-01 0.51098627E+03</pdfrwt>
<totfact> 0.98325521E+00</totfact>
</mgrwt>
</event>
<event>
 6      1 +2.6141198e-09 7.59626800e+02 7.81860800e-03 9.62036700e-02
       -4 -1    0    0    0  501 -0.0000000000e+00 +0.0000000000e+00 +3.9504906831e+02 3.9505110970e+02 1.2700000000e+00 0.0000e+00 1.0000e+00
        4 -1    0    0  501    0 +0.0000000000e+00 -0.0000000000e+00 -3.6516126496e+02 3.6516347343e+02 1.2700000000e+00 0.0000e+00 1.0000e+00
      -13  1    1    2    0    0 -6.5187352249e+01 +2.0065414552e+01 +5.6802631406e+01 8.8761263246e+01 1.0566000000e-01 0.0000e+00 1.0000e+00
       13  1    1    2    0    0 +2.0183456186e+01 +6.6316909281e+00 -4.2326247983e+00 2.1662813873e+01 1.0566000000e-01 0.0000e+00 -1.0000e+00
    10002  1    1    2    0    0 +1.2428521962e+02 +2.7712650426e+02 -5.5028122755e+00 3.1980649794e+02 1.0000000000e+02 0.0000e+00 0.0000e+00
   -10002  1    1    2    0    0 -7.9281323560e+01 -3.0382360974e+02 -1.7179390979e+01 3.2998400806e+02 1.0000000000e+02 0.0000e+00 0.0000e+00
<mgrwt>
<rscale>  0 0.75962684E+03</rscale>
<asrwt>0</asrwt>
<pdfrwt beam="1">  1        4 0.91290848E-01 0.75962684E+03</pdfrwt>
<pdfrwt beam="2">  1       -4 0.98762798E-01 0.75962684E+03</pdfrwt>
<totfact> 0.17071327E+00</totfact>
</mgrwt>
</event>
<event>
 6      1 +2.6141198e-09 3.09616600e+02 7.81860800e-03 1.08053000e-01
        4 -1    0    0  501    0 +0.0000000000e+00 +0.0000000000e+00 +1.9334514554e+02 1.9334931653e+02 1.2700000000e+00 0.0000e+00 -1.0000e+00
       -4 -1    0    0    0  501 -0.0000000000e+00 -0.0000000000e+00 -1.2394371169e+02 1.2395021810e+02 1.2700000000e+00 0.0000e+00 -1.0000e+00
      -13  1    1    2    0    0 +3.6543587352e+01 +2.2733463899e+01 +1.1341055662e+01 4.4507020401e+01 1.0566000000e-01 0.0000e+00 -1.0000e+00
       13  1    1    2    0    0 -4.9246829783e+01 -1.4086430252e+01 +4.1761719080e+01 6.6088804691e+01 1.0566000000e-01 0.0000e+00 1.0000e+00
    10002  1    1    2    0    0 +1.7755013018e+01 +2.2518758185e+00 +2.7816353111e+01 1.0532834819e+02 1.0000000000e+02 0.0000e+00 0.0000e+00
   -10002  1    1    2    0    0 -5.0517705875e+00 -1.0898909466e+01 -1.1517694000e+01 1.0137536135e+02 1.0000000000e+02 0.0000e+00 0.0000e+00
<mgrwt>
<rscale>  0 0.30961659E+03</rscale>
<asrwt>0</asrwt>
<pdfrwt beam="1">  1        4 0.48337621E-01 0.30961659E+03</pdfrwt>
<pdfrwt beam="2">  1       -4 0.30987263E-01 0.30961659E+03</pdfrwt>
<totfact> 0.77697575E+01</totfact>
</mgrwt>
</event>
<event>
 6      1 +2.6141198e-09 4.90336800e+02 7.81860800e-03 1.01633200e-01
       -4 -1    0    0    0  501 -0.0000000000e+00 +0.0000000000e+00 +5.1543565442e+02 5.1543721902e+02 1.2700000000e+00 0.0000e+00 1.0000e+00
        4 -1    0    0  501    0 +0.0000000000e+00 -0.0000000000e+00 -1.1660984684e+02 1.1661676243e+02 1.2700000000e+00 0.0000e+00 1.0000e+00
      -13  1    1    2    0    0 +2.3813445884e+00 +2.9452008571e+01 +7.8709052638e+01 8.4072693202e+01 1.0566000000e-01 0.0000e+00 1.0000e+00
       13  1    1    2    0    0 +7.9943662328e+01 -2.8372951238e+01 +3.7953641837e+01 9.2932790774e+01 1.0566000000e-01 0.0000e+00 -1.0000e+00
    10002  1    1    2    0    0 -1.1544196990e+02 +4.7207149646e+01 +1.1089245783e+01 1.6024460916e+02 1.0000000000e+02 0.0000e+00 0.0000e+00
   -10002  1    1    2    0    0 +3.3116962983e+01 -4.8286206979e+01 +2.7107386733e+02 2.9480388832e+02 1.0000000000e+02 0.0000e+00 0.0000e+00
<mgrwt>
<rscale>  0 0.49033683E+03</rscale>
<asrwt>0</asrwt>
<pdfrwt beam="1">  1        4 0.29153522E-01 0.49033683E+03</pdfrwt>
<pdfrwt beam="2">  1       -4 0.12885997E+00 0.49033683E+03</pdfrwt>
<totfact> 0.98228079E+00</totfact>
</mgrwt>
</event>
<event>
 6      1 +2.6141198e-09 4.02707000e+02 7.81860800e-03 1.04284600e-01
        4 -1    0    0  501    0 +0.0000000000e+00 +0.0000000000e+00 +1.0674350120e+02 1.0675105596e+02 1.2700000000e+00 0.0000e+00 1.0000e+00
       -4 -1    0    0    0  501 -0.0000000000e+00 -0.0000000000e+00 -3.7979707642e+02 3.7979919979e+02 1.2700000000e+00 0.0000e+00 1.0000e+00
      -13  1    1    2    0    0 +5.7902501467e+01 -6.3960392821e+01 -3.3534751418e+01 9.2564692203e+01 1.0566000000e-01 0.0000e+00 -1.0000e+00
       13  1    1    2    0    0 -2.2766406551e+01 -2.7975607215e+01 -4.9841028355e+01 6.1523029329e+01 1.0566000000e-01 0.0000e+00 1.0000e+00
    10002  1    1    2    0    0 +2.8804261928e+01 -1.7168122797e+01 -1.1082267178e+02 1.5299050469e+02 1.0000000000e+02 0.0000e+00 0.0000e+00
   -10002  1    1    2    0    0 -6.3940356844e+01 +1.0910412283e+02 -7.8855123665e+01 1.7947202952e+02 1.0000000000e+02 0.0000e+00 0.0000e+00
<mgrwt>
<rscale>  0 0.40270696E+03</rscale>
<asrwt>0</asrwt>
<pdfrwt beam="1">  1        4 0.26687086E-01 0.40270696E+03</pdfrwt>
<pdfrwt beam="2">  1       -4 0.94950476E-01 0.40270696E+03</pdfrwt>
<totfact> 0.24136459E+01</totfact>
</mgrwt>
</event>
<event>
 6      1 +2.6141198e-09 5.45009700e+02 7.81860800e-03 1.00265600e-01
       -4 -1    0    0    0  501 -0.0000000000e+00 +0.0000000000e+00 +9.2638894497e+02 9.2638981550e+02 1.2700000000e+00 0.0000e+00 -1.0000e+00
        4 -1    0    0  501    0 +0.0000000000e+00 -0.0000000000e+00 -8.0153588632e+01 8.0163649310e+01 1.2700000000e+00 0.0000e+00 -1.0000e+00
      -13  1    1    2    0    0 -4.6203722805e+01 +4.4422922273e+01 +5.7787761944e+01 8.6299574848e+01 1.0566000000e-01 0.0000e+00 -1.0000e+00
       13  1    1    2    0    0 +3.5635620374e+01 +2.8796890532e+01 -8.3284431099e+00 4.6567504468e+01 1.0566000000e-01 0.0000e+00 1.0000e+00
    10002  1    1    2    0    0 -2.4978322376e+01 +4.9620296343e+01 +6.3239237180e+02 6.4265558607e+02 1.0000000000e+02 0.0000e+00 0.0000e+00
   -10002  1    1    2    0    0 +3.5546424807e+01 -1.2284010915e+02 +1.6438366571e+02 2.3103079943e+02 1.0000000000e+02 0.0000e+00 0.0000e+00
<mgrwt>
<rscale>  0 0.54500972E+03</rscale>
<asrwt>0</asrwt>
<pdfrwt beam="1">  1        4 0.20039763E-01 0.54500972E+03</pdfrwt>
<pdfrwt beam="2">  1       -4 0.23159860E+00 0.54500972E+03</pdfrwt>
<totfact> 0.38086505E+00</totfact>
</mgrwt>
</event>
<event>
 6      1 +2.6141198e-09 4.31386800e+02 7.81860800e-03 1.03342300e-01
       -4 -1    0    0    0  501 -0.0000000000e+00 +0.0000000000e+00 +1.2432118242e+02 1.2432766908e+02 1.2700000000e+00 0.0000e+00 1.0000e+00
        4 -1    0    0  501    0 +0.0000000000e+00 -0.0000000000e+00 -3.7420396682e+02 3.7420612192e+02 1.2700000000e+00 0.0000e+00 1.0000e+00
      -13  1    1    2    0    0 -3.2923431789e+01 -5.1739241935e+01 -4.1485546545e+00 6.1466439514e+01 1.0566000000e-01 0.0000e+00 1.0000e+00
       13  1    1    2    0    0 +2.3920420924e+01 +3.2979111189e+01 -2.4155138760e+01 4.7363384640e+01 1.0566000000e-01 0.0000e+00 -1.0000e+00
    10002  1    1    2    0    0 -4.2938024843e+01 -5.4608170072e+00 -2.4850227462e+02 2.7134272607e+02 1.0000000000e+02 0.0000e+00 0.0000e+00
   -10002  1    1    2    0    0 +5.1941035708e+01 +2.4220947753e+01 +2.6923183632e+01 1.1836124077e+02 1.0000000000e+02 0.0000e+00 0.0000e+00
<mgrwt>
<rscale>  0 0.43138676E+03</rscale>
<asrwt>0</asrwt>
<pdfrwt beam="1">  1        4 0.93552069E-01 0.43138676E+03</pdfrwt>
<pdfrwt beam="2">  1       -4 0.31081377E-01 0.43138676E+03</pdfrwt>
<totfact> 0.18735662E+01</totfact>
</mgrwt>
</event>
<event>
 6      1 +2.6141198e-09 5.82580000e+02 7.81860800e-03 9.94222100e-02
       -4 -1    0    0    0  501 -0.0000000000e+00 +0.0000000000e+00 +1.2540920058e+03 1.2540926489e+03 1.2700000000e+00 0.0000e+00 1.0000e+00
        4 -1    0    0  501    0 +0.0000000000e+00 -0.0000000000e+00 -6.7651795158e+01 6.7663714708e+01 1.2700000000e+00 0.0000e+00 1.0000e+00
      -13  1    1    2    0    0 +8.8260760974e+01 -9.6744567261e+01 +2.7518334233e+02 3.0475458369e+02 1.0566000000e-01 0.0000e+00 -1.0000e+00
       13  1    1    2    0    0 -3.0524442762e+01 -2.5501208571e+01 +7.7185182659e+01 8.6830967003e+01 1.0566000000e-01 0.0000e+00 1.0000e+00
    10002  1    1    2    0    0 +5.4313073229e+01 +1.5651776234e+02 +6.9901014945e+02 7.2530194325e+02 1.0000000000e+02 0.0000e+00 0.0000e+00
   -10002  1    1    2    0    0 -1.1204939144e+02 -3.4271986504e+01 +1.3506153624e+02 2.0486886965e+02 1.0000000000e+02 0.0000e+00 0.0000e+00
<mgrwt>
<rscale>  0 0.58258005E+03</rscale>
<asrwt>0</asrwt>
<pdfrwt beam="1">  1        4 0.16914519E-01 0.58258005E+03</pdfrwt>
<pdfrwt beam="2">  1       -4 0.31352456E+00 0.58258005E+03</pdfrwt>
<totfact> 0.16482116E+00</totfact>
</mgrwt>
</event>
<event>
 6      1 +2.6141198e-09 5.21743000e+02 7.81860800e-03 1.00825400e-01
        4 -1    0    0  501    0 +0.0000000000e+00 +0.0000000000e+00 +2.1362947959e+02 2.1363325455e+02 1.2700000000e+00 0.0000e+00 1.0000e+00
       -4 -1    0    0    0  501 -0.0000000000e+00 -0.0000000000e+00 -3.1855272196e+02 3.1855525356e+02 1.2700000000e+00 0.0000e+00 1.0000e+00
      -13  1    1    2    0    0 +3.2062683107e+01 -2.3723116758e+01 -9.6867055745e+00 4.1044431360e+01 1.0566000000e-01 0.0000e+00 1.0000e+00
       13  1    1    2    0    0 +3.8350839848e+01 +6.7922167611e+01 -7.8178239810e+01 1.1043575560e+02 1.0566000000e-01 0.0000e+00 -1.0000e+00
    10002  1    1    2    0    0 +7.0363787533e+01 -2.1413525260e+01 -1.2470059806e+02 1.7595408724e+02 1.0000000000e+02 0.0000e+00 0.0000e+00
   -10002  1    1    2    0    0 -1.4077731049e+02 -2.2785525593e+01 +1.0764230107e+02 2.0475423391e+02 1.0000000000e+02 0.0000e+00 0.0000e+00
<mgrwt>
<rscale>  0 0.52174296E+03</rscale>
<asrwt>0</asrwt>
<pdfrwt beam="1">  1        4 0.53408159E-01 0.52174296E+03</pdfrwt>
<pdfrwt beam="2">  1       -4 0.79638968E-01 0.52174296E+03</pdfrwt>
<totfact> 0.91819244E+00</totfact>
</mgrwt>
</event>
<event>
 6      1 +2.6141198e-09 6.78019700e+02 7.81860800e-03 9.75557800e-02
        4 -1    0    0  501    0 +0.0000000000e+00 +0.0000000000e+00 +1.9195260105e+02 1.9195680230e+02 1.2700000000e+00 0.0000e+00 1.0000e+00
       -4 -1    0    0    0  501 -0.0000000000e+00 -0.0000000000e+00 -5.9871809025e+02 5.9871943721e+02 1.2700000000e+00 0.0000e+00 1.0000e+00
      -13  1    1    2    0    0 -1.2387890396e+02 +9.9778045415e+01 +1.5293572178e+01 1.5979845339e+02 1.0566000000e-01 0.0000e+00 1.0000e+00
       13  1    1    2    0    0 +1.4426658201e+01 +8.0113616041e+00 +1.8102665311e+01 2.4495469724e+01 1.0566000000e-01 0.0000e+00 -1.0000e+00
    10002  1    1    2    0    0 +1.1674287570e+02 +4.2016394301e+01 -3.8687233871e+02 4.1840707795e+02 1.0000000000e+02 0.0000e+00 0.0000e+00
   -10002  1    1    2    0    0 -7.2906299464e+00 -1.4980580132e+02 -5.3289387976e+01 1.8797523844e+02 1.0000000000e+02 0.0000e+00 0.0000e+00
<mgrwt>
<rscale>  0 0.67801973E+03</rscale>
<asrwt>0</asrwt>
<pdfrwt beam="1">  1        4 0.47988845E-01 0.67801973E+03</pdfrwt>
<pdfrwt beam="2">  1       -4 0.14968021E+00 0.67801973E+03</pdfrwt>
<totfact> 0.24803885E+00</totfact>
</mgrwt>
</event>
<event>
 6      1 +2.6141198e-09 4.46082100e+02 7.81860800e-03 1.02889700e-01
        4 -1    0    0  501    0 +0.0000000000e+00 +0.0000000000e+00 +9.7975820909e+01 9.7984051675e+01 1.2700000000e+00 0.0000e+00 -1.0000e+00
       -4 -1    0    0    0  501 -0.0000000000e+00 -0.0000000000e+00 -5.0772063779e+02 5.0772222616e+02 1.2700000000e+00 0.0000e+00 -1.0000e+00
      -13  1    1    2    0    0 -5.4343430112e+01 +4.6543064206e+01 -3.9426591421e+01 8.1694139919e+01 1.0566000000e-01 0.0000e+00 -1.0000e+00
       13  1    1    2    0    0 +1.7353511673e+00 -5.7583178828e+01 -1.0185517645e+02 1.1701846889e+02 1.0566000000e-01 0.0000e+00 1.0000e+00
    10002  1    1    2    0    0 +7.1530820819e+00 -1.0405473017e+02 -1.0299188543e+02 1.7744261585e+02 1.0000000000e+02 0.0000e+00 0.0000e+00
   -10002  1    1    2    0    0 +4.5454996863e+01 +1.1509484480e+02 -1.6547116357e+02 2.2955105317e+02 1.0000000000e+02 0.0000e+00 0.0000e+00
<mgrwt>
<rscale>  0 0.44608214E+03</rscale>
<asrwt>0</asrwt>
<pdfrwt beam="1">  1        4 0.24495184E-01 0.44608214E+03</pdfrwt>
<pdfrwt beam="2">  1       -4 0.12693138E+00 0.44608214E+03</pdfrwt>
<totfact> 0.14144441E+01</totfact>
</mgrwt>
</event>
<event>
 6      1 +2.6141198e-09 6.36390300e+02 7.81860800e-03 9.83265700e-02
        4 -1    0    0  501    0 +0.0000000000e+00 +0.0000000000e+00 +3.6902878609e+02 3.6903097141e+02 1.2700000000e+00 0.0000e+00 -1.0000e+00
       -4 -1    0    0    0  501 -0.0000000000e+00 -0.0000000000e+00 -2.7435940942e+02 2.7436234880e+02 1.2700000000e+00 0.0000e+00 -1.0000e+00
      -13  1    1    2    0    0 -1.6555627542e+01 -1.1780821620e+02 +9.9075613728e+01 1.5481877472e+02 1.0566000000e-01 0.0000e+00 1.0000e+00
       13  1    1    2    0    0 +4.7294926593e+01 -2.4324218790e+01 +2.8743034807e+01 6.0453708862e+01 1.0566000000e-01 0.0000e+00 -1.0000e+00
    10002  1    1    2    0    0 -3.9275476455e+01 -1.0956947295e+02 -3.3866047082e+01 1.5714624271e+02 1.0000000000e+02 0.0000e+00 0.0000e+00
   -10002  1    1    2    0    0 +8.5361774041e+00 +2.5170190794e+02 +7.1677521368e-01 2.7097459392e+02 1.0000000000e+02 0.0000e+00 0.0000e+00
<mgrwt>
<rscale>  0 0.63639035E+03</rscale>
<asrwt>0</asrwt>
<pdfrwt beam="1">  1        4 0.92257837E-01 0.63639035E+03</pdfrwt>
<pdfrwt beam="2">  1       -4 0.68590493E-01 0.63639035E+03</pdfrwt>
<totfact> 0.38363074E+00</totfact>
</mgrwt>
</event>
<event>
 6      1 +2.6141198e-09 4.52680400e+02 7.81860800e-03 1.02692600e-01
        4 -1    0    0  501    0 +0.0000000000e+00 +0.0000000000e+00 +1.2746313247e+02 1.2746945924e+02 1.2700000000e+00 0.0000e+00 -1.0000e+00
       -4 -1    0    0    0  501 -0.0000000000e+00 -0.0000000000e+00 -4.0190193537e+02 4.0190394195e+02 1.2700000000e+00 0.0000e+00 -1.0000e+00
      -13  1    1    2    0    0 +5.4732990027e+01 -6.7333713319e+01 -3.3793197112e+01 9.3120999144e+01 1.0566000000e-01 0.0000e+00 -1.0000e+00
       13  1    1    2    0    0 -2.9051729948e+01 +6.5294386978e+00 -6.9072036102e+01 7.5216978921e+01 1.0566000000e-01 0.0000e+00 1.0000e+00
    10002  1    1    2    0    0 -9.3502147923e+01 -2.4553508871e+01 -6.3118775064e+00 1.3923134080e+02 1.0000000000e+02 0.0000e+00 0.0000e+00
   -10002  1    1    2    0    0 +6.7820887845e+01 +8.5357783492e+01 -1.6526169219e+02 2.2180408232e+02 1.0000000000e+02 0.0000e+00 0.0000e+00
<mgrwt>
<rscale>  0 0.45268040E+03</rscale>
<asrwt>0</asrwt>
<pdfrwt beam="1">  1        4 0.31866826E-01 0.45268040E+03</pdfrwt>
<pdfrwt beam="2">  1       -4 0.10047652E+00 0.45268040E+03</pdfrwt>
<totfact> 0.15131206E+01</totfact>
</mgrwt>
</event>
<event>
 6      1 +2.6141198e-09 5.25109600e+02 7.81860800e-03 1.00742500e-01
       -4 -1    0    0    0  501 -0.0000000000e+00 +0.0000000000e+00 +5.7949024143e+02 5.7949163308e+02 1.2700000000e+00 0.0000e+00 1.0000e+00
        4 -1    0    0  501    0 +0.0000000000e+00 -0.0000000000e+00 -1.1895313757e+02 1.1895991693e+02 1.2700000000e+00 0.0000e+00 1.0000e+00
      -13  1    1    2    0    0 +1.1756667683e+01 -1.6914362153e+01 -3.2717060643e+00 2.0857375354e+01 1.0566000000e-01 0.0000e+00 -1.0000e+00
       13  1    1    2    0    0 +5.4938517976e+01 +7.2670840935e+01 +3.6753311695e+01 9.8234968133e+01 1.0566000000e-01 0.0000e+00 1.0000e+00
    10002  1    1    2    0    0 -6.3071412969e+01 +1.1553365141e+02 +3.0365103574e+02 3.4573107938e+02 1.0000000000e+02 0.0000e+00 0.0000e+00
   -10002  1    1    2    0    0 -3.6237726895e+00 -1.7129013019e+02 +1.2340446249e+02 2.3362812714e+02 1.0000000000e+02 0.0000e+00 0.0000e+00
<mgrwt>
<rscale>  0 0.52510965E+03</rscale>
<asrwt>0</asrwt>
<pdfrwt beam="1">  1        4 0.29739306E-01 0.52510965E+03</pdfrwt>
<pdfrwt beam="2">  1       -4 0.14487358E+00 0.52510965E+03</pdfrwt>
<totfact> 0.70164258E+00</totfact>
</mgrwt>
</event>
<event>
 6      1 +2.6141198e-09 4.47761100e+02 7.81860800e-03 1.02839200e-01
        4 -1    0    0  501    0 +0.0000000000e+00 +0.0000000000e+00 +1.5356325702e+02 1.5356850851e+02 1.2700000000e+00 0.0000e+00 1.0000e+00
       -4 -1    0    0    0  501 -0.0000000000e+00 -0.0000000000e+00 -3.2638436531e+02 3.2638683616e+02 1.2700000000e+00 0.0000e+00 1.0000e+00
      -13  1    1    2    0    0 +2.0986261844e+01 +1.0785304988e+01 +2.0077392781e+01 3.0981588965e+01 1.0566000000e-01 0.0000e+00 -1.0000e+00
       13  1    1    2    0    0 -7.8820272801e+01 +6.4108058487e+01 -3.2835891827e+01 1.0677399273e+02 1.0566000000e-01 0.0000e+00 1.0000e+00
    10002  1    1    2    0    0 +4.4037637622e+01 -1.3944002716e+02 -1.2678019166e+02 2.1784409953e+02 1.0000000000e+02 0.0000e+00 0.0000e+00
   -10002  1    1    2    0    0 +1.3796373335e+01 +6.4546663683e+01 -3.3282417579e+01 1.2435566344e+02 1.0000000000e+02 0.0000e+00 0.0000e+00
<mgrwt>
<rscale>  0 0.44776109E+03</rscale>
<asrwt>0</asrwt>
<pdfrwt beam="1">  1        4 0.38391780E-01 0.44776109E+03</pdfrwt>
<pdfrwt beam="2">  1       -4 0.81597056E-01 0.44776109E+03</pdfrwt>
<totfact> 0.16974479E+01</totfact>
</mgrwt>
</event>
<event>
 6      1 +2.6141198e-09 5.62884200e+02 7.81860800e-03 9.98555000e-02
        4 -1    0    0  501    0 +0.0000000000e+00 +0.0000000000e+00 +8.1921643706e+02 8.1921742147e+02 1.2700000000e+00 0.0000e+00 -1.0000e+00
       -4 -1    0    0    0  501 -0.0000000000e+00 -0.0000000000e+00 -9.6684304150e+01 9.6692644854e+01 1.2700000000e+00 0.0000e+00 -1.0000e+00
      -13  1    1    2    0    0 +3.8231584480e+01 +3.2862847945e+01 +4.9216324268e+01 7.0454798030e+01 1.0566000000e-01 0.0000e+00 1.0000e+00
       13  1    1    2    0    0 -5.1070167032e+01 -3.8723549572e+01 +2.9669319001e+01 7.0625455086e+01 1.0566000000e-01 0.0000e+00 -1.0000e+00
    10002  1    1    2    0    0 -2.5036769882e+01 -1.2877956035e+01 +6.5725820686e+02 6.6541793790e+02 1.0000000000e+02 0.0000e+00 0.0000e+00
   -10002  1    1    2    0    0 +3.7875352433e+01 +1.8738657663e+01 -1.3611717221e+01 1.0941187531e+02 1.0000000000e+02 0.0000e+00 0.0000e+00
<mgrwt>
<rscale>  0 0.56288415E+03</rscale>
<asrwt>0</asrwt>
<pdfrwt beam="1">  1        4 0.20480527E+00 0.56288415E+03</pdfrwt>
<pdfrwt beam="2">  1       -4 0.24172242E-01 0.56288415E+03</pdfrwt>
<totfact> 0.39590481E+00</totfact>
</mgrwt>
</event>
<event>
 6      1 +2.6141198e-09 7.98398500e+02 7.81860800e-03 9.56233800e-02
       -4 -1    0    0    0  501 -0.0000000000e+00 +0.0000000000e+00 +8.4345643384e+02 8.4345738996e+02 1.2700000000e+00 0.0000e+00 -1.0000e+00
        4 -1    0    0  501    0 +0.0000000000e+00 -0.0000000000e+00 -1.8893368851e+02 1.8893795690e+02 1.2700000000e+00 0.0000e+00 -1.0000e+00
      -13  1    1    2    0    0 +1.2272402826e+02 -5.7770952644e+01 +3.8958834567e+01 1.4112573131e+02 1.0566000000e-01 0.0000e+00 -1.0000e+00
       13  1    1    2    0    0 -3.7475536790e+00 -1.1861542514e+01 +3.2220367907e+01 3.4538436871e+01 1.0566000000e-01 0.0000e+00 1.0000e+00
    10002  1    1    2    0    0 -3.1132936144e+01 +4.6476346349e+01 -1.0490217437e+02 1.5535049620e+02 1.0000000000e+02 0.0000e+00 0.0000e+00
   -10002  1    1    2    0    0 -8.7843538440e+01 +2.3156148810e+01 +6.8824571722e+02 7.0138068247e+02 1.0000000000e+02 0.0000e+00 0.0000e+00
<mgrwt>
<rscale>  0 0.79839848E+03</rscale>
<asrwt>0</asrwt>
<pdfrwt beam="1">  1        4 0.47234076E-01 0.79839848E+03</pdfrwt>
<pdfrwt beam="2">  1       -4 0.21086476E+00 0.79839848E+03</pdfrwt>
<totfact> 0.96054682E-01</totfact>
</mgrwt>
</event>
<event>
 6      1 +2.6141198e-09 4.30481300e+02 7.81860800e-03 1.03370800e-01
       -4 -1    0    0    0  501 -0.0000000000e+00 +0.0000000000e+00 +1.5484645057e+02 1.5485165855e+02 1.2700000000e+00 0.0000e+00 -1.0000e+00
        4 -1    0    0  501    0 +0.0000000000e+00 -0.0000000000e+00 -2.9917862404e+02 2.9918131957e+02 1.2700000000e+00 0.0000e+00 -1.0000e+00
      -13  1    1    2    0    0 +3.8625828400e+01 -6.0016182345e+00 +3.4534978707e+01 5.2159850071e+01 1.0566000000e-01 0.0000e+00 1.0000e+00
       13  1    1    2    0    0 -6.5286147872e+01 +1.2480004764e+01 -3.5272437354e+00 6.6561882751e+01 1.0566000000e-01 0.0000e+00 -1.0000e+00
    10002  1    1    2    0    0 -4.4981701670e+01 +7.1901842890e+01 -1.2457965603e+02 1.8086823710e+02 1.0000000000e+02 0.0000e+00 0.0000e+00
   -10002  1    1    2    0    0 +7.1642021142e+01 -7.8380229419e+01 -5.0760252406e+01 1.5444300820e+02 1.0000000000e+02 0.0000e+00 0.0000e+00
<mgrwt>
<rscale>  0 0.43048132E+03</rscale>
<asrwt>0</asrwt>
<pdfrwt beam="1">  1        4 0.74795643E-01 0.43048132E+03</pdfrwt>
<pdfrwt beam="2">  1       -4 0.38712601E-01 0.43048132E+03</pdfrwt>
<totfact> 0.20260912E+01</totfact>
</mgrwt>
</event>
<event>
 6      1 +2.6141198e-09 4.21306900e+02 7.81860800e-03 1.03664200e-01
        4 -1    0    0  501    0 +0.0000000000e+00 +0.0000000000e+00 +1.1626101208e+02 1.1626794842e+02 1.2700000000e+00 0.0000e+00 1.0000e+00
       -4 -1    0    0    0  501 -0.0000000000e+00 -0.0000000000e+00 -3.8166383436e+02 3.8166594734e+02 1.2700000000e+00 0.0000e+00 1.0000e+00
      -13  1    1    2    0    0 -1.5645264641e+01 +1.2427875475e+01 +5.8442069086e-01 1.9989474883e+01 1.0566000000e-01 0.0000e+00 1.0000e+00
       13  1    1    2    0    0 +6.5108674021e+01 +8.2705235739e+00 -1.0033761858e+02 1.1989657985e+02 1.0566000000e-01 0.0000e+00 -1.0000e+00
    10002  1    1    2    0    0 -4.7092023758e+00 +1.0716648614e+02 -9.9078294909e+01 1.7698401301e+02 1.0000000000e+02 0.0000e+00 0.0000e+00
   -10002  1    1    2    0    0 -4.4754207004e+01 -1.2786488519e+02 -6.6571329483e+01 1.8106382802e+02 1.0000000000e+02 0.0000e+00 0.0000e+00
<mgrwt>
<rscale>  0 0.42130690E+03</rscale>
<asrwt>0</asrwt>
<pdfrwt beam="1">  1        4 0.29066385E-01 0.42130690E+03</pdfrwt>
<pdfrwt beam="2">  1       -4 0.95417087E-01 0.42130690E+03</pdfrwt>
<totfact> 0.20331547E+01</totfact>
</mgrwt>
</event>
<event>
 6      1 +2.6141198e-09 7.45384100e+02 7.81860800e-03 9.64262000e-02
        4 -1    0    0  501    0 +0.0000000000e+00 +0.0000000000e+00 +1.3431397056e+03 1.3431403060e+03 1.2700000000e+00 0.0000e+00 -1.0000e+00
       -4 -1    0    0    0  501 -0.0000000000e+00 -0.0000000000e+00 -1.0340940515e+02 1.0341720347e+02 1.2700000000e+00 0.0000e+00 -1.0000e+00
      -13  1    1    2    0    0 +9.3632143810e+01 -1.9637913395e+01 +2.9420089254e+02 3.0936516018e+02 1.0566000000e-01 0.0000e+00 1.0000e+00
       13  1    1    2    0    0 +1.1793153208e+02 -5.0070984579e+01 +1.5501089551e+02 2.0110529244e+02 1.0566000000e-01 0.0000e+00 -1.0000e+00
    10002  1    1    2    0    0 -4.6233373501e+01 +2.2290594918e+02 +3.2402393958e+02 4.0843126769e+02 1.0000000000e+02 0.0000e+00 0.0000e+00
   -10002  1    1    2    0    0 -1.6533030239e+02 -1.5319705121e+02 +4.6649457277e+02 5.2765578914e+02 1.0000000000e+02 0.0000e+00 0.0000e+00
<mgrwt>
<rscale>  0 0.74538407E+03</rscale>
<asrwt>0</asrwt>
<pdfrwt beam="1">  1        4 0.33578598E+00 0.74538407E+03</pdfrwt>
<pdfrwt beam="2">  1       -4 0.25853401E-01 0.74538407E+03</pdfrwt>
<totfact> 0.53894608E-01</totfact>
</mgrwt>
</event>
<event>
 6      1 +2.6141198e-09 4.08413400e+02 7.81860800e-03 1.04090500e-01
        4 -1    0    0  501    0 +0.0000000000e+00 +0.0000000000e+00 +2.5261371557e+02 2.5261690797e+02 1.2700000000e+00 0.0000e+00 1.0000e+00
       -4 -1    0    0    0  501 -0.0000000000e+00 -0.0000000000e+00 -1.6506900755e+02 1.6507389301e+02 1.2700000000e+00 0.0000e+00 1.0000e+00
      -13  1    1    2    0    0 -4.9911364343e+00 +4.1681426986e+01 -1.0833918248e+01 4.3354789206e+01 1.0566000000e-01 0.0000e+00 1.0000e+00
       13  1    1    2    0    0 +3.6855342370e+01 +1.7136542240e+01 +3.1504237851e+01 5.1424755786e+01 1.0566000000e-01 0.0000e+00 -1.0000e+00
    10002  1    1    2    0    0 -8.6949826320e+01 +4.9555053844e+01 +8.4053115025e+01 1.6456275947e+02 1.0000000000e+02 0.0000e+00 0.0000e+00
   -10002  1    1    2    0    0 +5.5085620385e+01 -1.0837302307e+02 -1.7178726607e+01 1.5834849652e+02 1.0000000000e+02 0.0000e+00 0.0000e+00
<mgrwt>
<rscale>  0 0.40841343E+03</rscale>
<asrwt>0</asrwt>
<pdfrwt beam="1">  1        4 0.63154438E-01 0.40841343E+03</pdfrwt>
<pdfrwt beam="2">  1       -4 0.41268262E-01 0.40841343E+03</pdfrwt>
<totfact> 0.25754416E+01</totfact>
</mgrwt>
</event>
<event>
 6      1 +2.6141198e-09 4.33892900e+02 7.81860800e-03 1.03263700e-01
       -4 -1    0    0    0  501 -0.0000000000e+00 +0.0000000000e+00 +2.0462719995e+02 2.0463114098e+02 1.2700000000e+00 0.0000e+00 -1.0000e+00
        4 -1    0    0  501    0 +0.0000000000e+00 -0.0000000000e+00 -2.2999942279e+02 2.3000292908e+02 1.2700000000e+00 0.0000e+00 -1.0000e+00
      -13  1    1    2    0    0 +5.3816713326e+01 +4.6572460852e+01 +2.0196404101e+01 7.3980663998e+01 1.0566000000e-01 0.0000e+00 1.0000e+00
       13  1    1    2    0    0 -1.6381842005e+01 -2.3317087885e+01 -1.7131666800e+01 3.3249909869e+01 1.0566000000e-01 0.0000e+00 -1.0000e+00
    10002  1    1    2    0    0 +2.8903374213e+01 -1.0277642592e+02 +6.0376534363e+01 1.5825209214e+02 1.0000000000e+02 0.0000e+00 0.0000e+00
   -10002  1    1    2    0    0 -6.6338245534e+01 +7.9521052957e+01 -8.8813494508e+01 1.6915140405e+02 1.0000000000e+02 0.0000e+00 0.0000e+00
<mgrwt>
<rscale>  0 0.43389287E+03</rscale>
<asrwt>0</asrwt>
<pdfrwt beam="1">  1        4 0.57500787E-01 0.43389287E+03</pdfrwt>
<pdfrwt beam="2">  1       -4 0.51157731E-01 0.43389287E+03</pdfrwt>
<totfact> 0.20349903E+01</totfact>
</mgrwt>
</event>
<event>
 6      1 +2.6141198e-09 5.69638600e+02 7.81860800e-03 9.97047900e-02
       -4 -1    0    0    0  501 -0.0000000000e+00 +0.0000000000e+00 +5.6682075260e+02 5.6682217536e+02 1.2700000000e+00 0.0000e+00 -1.0000e+00
        4 -1    0    0  501    0 +0.0000000000e+00 -0.0000000000e+00 -1.4311319349e+02 1.4311882843e+02 1.2700000000e+00 0.0000e+00 -1.0000e+00
      -13  1    1    2    0    0 -2.1242638828e+01 +8.6111303258e+00 +2.7387337174e+01 3.5713844254e+01 1.0566000000e-01 0.0000e+00 -1.0000e+00
       13  1    1    2    0    0 +4.8183167882e+01 +1.1039383836e+02 +6.7851857988e+01 1.3824725318e+02 1.0566000000e-01 0.0000e+00 1.0000e+00
    10002  1    1    2    0    0 -3.2809256234e+00 -1.0440211218e+02 +3.8956655802e+02 4.1553900976e+02 1.0000000000e+02 0.0000e+00 0.0000e+00
   -10002  1    1    2    0    0 -2.3659603431e+01 -1.4602856504e+01 -6.1098194080e+01 1.2044089659e+02 1.0000000000e+02 0.0000e+00 0.0000e+00
<mgrwt>
<rscale>  0 0.56963860E+03</rscale>
<asrwt>0</asrwt>
<pdfrwt beam="1">  1        4 0.35779181E-01 0.56963860E+03</pdfrwt>
<pdfrwt beam="2">  1       -4 0.14170607E+00 0.56963860E+03</pdfrwt>
<totfact> 0.51871378E+00</totfact>
</mgrwt>
</event>
<event>
 6      1 +2.6141198e-09 5.58189400e+02 7.81860800e-03 9.99616000e-02
       -4 -1    0    0    0  501 -0.0000000000e+00 +0.0000000000e+00 +3.9954742821e+02 3.9954944661e+02 1.2700000000e+00 0.0000e+00 -1.0000e+00
        4 -1    0    0  501    0 +0.0000000000e+00 -0.0000000000e+00 -1.9495065733e+02 1.9495479397e+02 1.2700000000e+00 0.0000e+00 -1.0000e+00
      -13  1    1    2    0    0 +3.9525598954e+01 -2.7676772743e+01 +7.5939244714e+01 8.9972533441e+01 1.0566000000e-01 0.0000e+00 1.0000e+00
       13  1    1    2    0    0 -4.4833790985e+01 -2.7164421218e+01 +2.5030613184e+00 5.2480959159e+01 1.0566000000e-01 0.0000e+00 -1.0000e+00
    10002  1    1    2    0    0 +5.2663449579e+01 -1.5079344371e+02 +3.9358733404e+00 1.8848764598e+02 1.0000000000e+02 0.0000e+00 0.0000e+00
   -10002  1    1    2    0    0 -4.7355257548e+01 +2.0563463768e+02 +1.2221859151e+02 2.6356310201e+02 1.0000000000e+02 0.0000e+00 0.0000e+00
<mgrwt>
<rscale>  0 0.55818944E+03</rscale>
<asrwt>0</asrwt>
<pdfrwt beam="1">  1        4 0.48738434E-01 0.55818944E+03</pdfrwt>
<pdfrwt beam="2">  1       -4 0.99887625E-01 0.55818944E+03</pdfrwt>
<totfact> 0.65917727E+00</totfact>
</mgrwt>
</event>
<event>
 6      1 +2.6141198e-09 4.47683400e+02 7.81860800e-03 1.02841500e-01
        4 -1    0    0  501    0 +0.0000000000e+00 +0.0000000000e+00 +3.6231590620e+02 3.6231813201e+02 1.2700000000e+00 0.0000e+00 1.0000e+00
       -4 -1    0    0    0  501 -0.0000000000e+00 -0.0000000000e+00 -1.3828562689e+02 1.3829145854e+02 1.2700000000e+00 0.0000e+00 1.0000e+00
      -13  1    1    2    0    0 -2.7279469171e+01 -3.3636435152e+00 -1.1129090082e+01 2.9653858872e+01 1.0566000000e-01 0.0000e+00 -1.0000e+00
       13  1    1    2    0    0 -1.7217458822e+01 +1.3068855531e+02 +7.1277483120e+01 1.4985469676e+02 1.0566000000e-01 0.0000e+00 1.0000e+00
    10002  1    1    2    0    0 +5.8435427307e+01 -1.1006628522e+02 +4.8863496713e+01 1.6708359470e+02 1.0000000000e+02 0.0000e+00 0.0000e+00
   -10002  1    1    2    0    0 -1.3938499314e+01 -1.7258626579e+01 +1.1501838956e+02 1.5401744022e+02 1.0000000000e+02 0.0000e+00 0.0000e+00
<mgrwt>
<rscale>  0 0.44768337E+03</rscale>
<asrwt>0</asrwt>
<pdfrwt beam="1">  1        4 0.90579983E-01 0.44768337E+03</pdfrwt>
<pdfrwt beam="2">  1       -4 0.34572414E-01 0.44768337E+03</pdfrwt>
<totfact> 0.16441565E+01</totfact>
</mgrwt>
</event>
<event>
 6      1 +2.6141198e-09 5.24244500e+02 7.81860800e-03 1.00763800e-01
        4 -1    0    0  501    0 +0.0000000000e+00 +0.0000000000e+00 +1.6803612886e+02 1.6804092806e+02 1.2700000000e+00 0.0000e+00 1.0000e+00
       -4 -1    0    0    0  501 -0.0000000000e+00 -0.0000000000e+00 -4.0887705949e+02 4.0887903184e+02 1.2700000000e+00 0.0000e+00 1.0000e+00
      -13  1    1    2    0    0 +5.1622180585e+01 +2.0263871531e+01 -4.3617656316e+01 7.0554837710e+01 1.0566000000e-01 0.0000e+00 1.0000e+00
       13  1    1    2    0    0 -7.1816227187e+00 -6.4619318074e+01 -5.8334172341e+01 8.7350551229e+01 1.0566000000e-01 0.0000e+00 -1.0000e+00
    10002  1    1    2    0    0 +5.0737834460e+01 -4.5428186978e+01 -2.0783264078e+02 2.4048379278e+02 1.0000000000e+02 0.0000e+00 0.0000e+00
   -10002  1    1    2    0    0 -9.5178392327e+01 +8.9783633522e+01 +6.8943538802e+01 1.7853077818e+02 1.0000000000e+02 0.0000e+00 0.0000e+00
<mgrwt>
<rscale>  0 0.52424449E+03</rscale>
<asrwt>0</asrwt>
<pdfrwt beam="1">  1        4 0.42009879E-01 0.52424449E+03</pdfrwt>
<pdfrwt beam="2">  1       -4 0.10222011E+00 0.52424449E+03</pdfrwt>
<totfact> 0.84449591E+00</totfact>
</mgrwt>
</event>
<event>
 6      1 +2.6141198e-09 2.88542600e+02 7.81860800e-03 1.09111300e-01
        4 -1    0    0  501    0 +0.0000000000e+00 +0.0000000000e+00 +3.5152294240e+02 3.5152523655e+02 1.2700000000e+00 0.0000e+00 1.0000e+00
       -4 -1    0    0    0  501 -0.0000000000e+00 -0.0000000000e+00 -5.9202216461e+01 5.9215836850e+01 1.2700000000e+00 0.0000e+00 1.0000e+00
      -13  1    1    2    0    0 +6.9321416401e+00 -3.2901127780e+01 +2.0217041563e+01 3.9233642840e+01 1.0566000000e-01 0.0000e+00 -1.0000e+00
       13  1    1    2    0    0 -2.8094255030e+01 +1.2217506653e+01 +8.6947151257e+01 9.2186620018e+01 1.0566000000e-01 0.0000e+00 1.0000e+00
    10002  1    1    2    0    0 +2.0883161576e+00 +2.5190770837e+01 +1.2059132339e+02 1.5868586350e+02 1.0000000000e+02 0.0000e+00 0.0000e+00
   -10002  1    1    2    0    0 +1.9073797232e+01 -4.5071497095e+00 +6.4565209728e+01 1.2063494704e+02 1.0000000000e+02 0.0000e+00 0.0000e+00
<mgrwt>
<rscale>  0 0.28854258E+03</rscale>
<asrwt>0</asrwt>
<pdfrwt beam="1">  1        4 0.87882723E-01 0.28854258E+03</pdfrwt>
<pdfrwt beam="2">  1       -4 0.14802544E-01 0.28854258E+03</pdfrwt>
<totfact> 0.82400013E+01</totfact>
</mgrwt>
</event>
<event>
 6      1 +2.6141198e-09 4.13092400e+02 7.81860800e-03 1.03933800e-01
       -4 -1    0    0    0  501 -0.0000000000e+00 +0.0000000000e+00 +3.6679258631e+02 3.6679478495e+02 1.2700000000e+00 0.0000e+00 -1.0000e+00
        4 -1    0    0  501    0 +0.0000000000e+00 -0.0000000000e+00 -1.1630312722e+02 1.1631006105e+02 1.2700000000e+00 0.0000e+00 -1.0000e+00
      -13  1    1    2    0    0 -1.4206178239e+01 +5.5120825481e+00 -3.2138462102e+01 3.5568110218e+01 1.0566000000e-01 0.0000e+00 1.0000e+00
       13  1    1    2    0    0 +1.9029471546e+01 +6.6780478000e+01 +6.8298517537e+01 9.7398417292e+01 1.0566000000e-01 0.0000e+00 -1.0000e+00
    10002  1    1    2    0    0 -5.6387330461e+01 +3.5288097151e+01 +1.0894331531e+02 1.6215248006e+02 1.0000000000e+02 0.0000e+00 0.0000e+00
   -10002  1    1    2    0    0 +5.1564037155e+01 -1.0758065770e+02 +1.0538608834e+02 1.8798583844e+02 1.0000000000e+02 0.0000e+00 0.0000e+00
<mgrwt>
<rscale>  0 0.41309239E+03</rscale>
<asrwt>0</asrwt>
<pdfrwt beam="1">  1        4 0.29076923E-01 0.41309239E+03</pdfrwt>
<pdfrwt beam="2">  1       -4 0.91699288E-01 0.41309239E+03</pdfrwt>
<totfact> 0.22262390E+01</totfact>
</mgrwt>
</event>
<event>
 6      1 +2.6141198e-09 5.02408200e+02 7.81860800e-03 1.01315200e-01
        4 -1    0    0  501    0 +0.0000000000e+00 +0.0000000000e+00 +2.8798443782e+02 2.8798723813e+02 1.2700000000e+00 0.0000e+00 -1.0000e+00
       -4 -1    0    0    0  501 -0.0000000000e+00 -0.0000000000e+00 -2.1911550358e+02 2.1911918403e+02 1.2700000000e+00 0.0000e+00 -1.0000e+00
      -13  1    1    2    0    0 -4.4071644425e+01 -1.3610324286e+01 +2.0330533998e+01 5.0407266799e+01 1.0566000000e-01 0.0000e+00 1.0000e+00
       13  1    1    2    0    0 +5.3795522697e+01 -2.6287536643e+00 -3.9373429159e+01 6.6716914616e+01 1.0566000000e-01 0.0000e+00 -1.0000e+00
    10002  1    1    2    0    0 +6.7135645122e+01 -1.0658765889e+02 +1.3248626051e+02 2.0837642165e+02 1.0000000000e+02 0.0000e+00 0.0000e+00
   -10002  1    1    2    0    0 -7.6859523394e+01 +1.2282673684e+02 -4.4574431112e+01 1.8160581909e+02 1.0000000000e+02 0.0000e+00 0.0000e+00
<mgrwt>
<rscale>  0 0.50240819E+03</rscale>
<asrwt>0</asrwt>
<pdfrwt beam="1">  1        4 0.71996919E-01 0.50240819E+03</pdfrwt>
<pdfrwt beam="2">  1       -4 0.54779686E-01 0.50240819E+03</pdfrwt>
<totfact> 0.10896650E+01</totfact>
</mgrwt>
</event>
<event>
 6      1 +2.6141198e-09 4.78264800e+02 7.81860800e-03 1.01961300e-01
        4 -1    0    0  501    0 +0.0000000000e+00 +0.0000000000e+00 +2.6517977840e+02 2.6518281952e+02 1.2700000000e+00 0.0000e+00 -1.0000e+00
       -4 -1    0    0    0  501 -0.0000000000e+00 -0.0000000000e+00 -2.1563737681e+02 2.1564111662e+02 1.2700000000e+00 0.0000e+00 -1.0000e+00
      -13  1    1    2    0    0 -4.5455136733e+00 +3.8653179568e+01 -2.0951315585e+01 4.4200664860e+01 1.0566000000e-01 0.0000e+00 1.0000e+00
       13  1    1    2    0    0 +8.9905511793e+01 -1.0849269369e+01 -1.2629486802e+01 9.1434253961e+01 1.0566000000e-01 0.0000e+00 -1.0000e+00
    10002  1    1    2    0    0 -1.4264261458e+01 -1.3324461101e+02 +9.5820811250e+00 1.6747958621e+02 1.0000000000e+02 0.0000e+00 0.0000e+00
   -10002  1    1    2    0    0 -7.1095736662e+01 +1.0544070081e+02 +7.3541122846e+01 1.7770943112e+02 1.0000000000e+02 0.0000e+00 0.0000e+00
<mgrwt>
<rscale>  0 0.47826479E+03</rscale>
<asrwt>0</asrwt>
<pdfrwt beam="1">  1        4 0.66295792E-01 0.47826479E+03</pdfrwt>
<pdfrwt beam="2">  1       -4 0.53910192E-01 0.47826479E+03</pdfrwt>
<totfact> 0.13486010E+01</totfact>
</mgrwt>
</event>
<event>
 6      1 +2.6141198e-09 4.75255000e+02 7.81860800e-03 1.02044700e-01
       -4 -1    0    0    0  501 -0.0000000000e+00 +0.0000000000e+00 +1.5454531855e+02 1.5455053667e+02 1.2700000000e+00 0.0000e+00 -1.0000e+00
        4 -1    0    0  501    0 +0.0000000000e+00 -0.0000000000e+00 -3.6536146913e+02 3.6536367639e+02 1.2700000000e+00 0.0000e+00 -1.0000e+00
      -13  1    1    2    0    0 -2.8500792449e+01 +1.3672036610e+01 +4.6480969980e+01 5.6211311047e+01 1.0566000000e-01 0.0000e+00 1.0000e+00
       13  1    1    2    0    0 +3.7971386814e+01 +2.7738698380e+01 -3.3838877775e+01 5.7933948748e+01 1.0566000000e-01 0.0000e+00 -1.0000e+00
    10002  1    1    2    0    0 -3.7902183799e+01 -1.2338885788e+02 -2.1916477768e+02 2.7330310199e+02 1.0000000000e+02 0.0000e+00 0.0000e+00
   -10002  1    1    2    0    0 +2.8431589434e+01 +8.1978122892e+01 -4.2934651170e+00 1.3246585127e+02 1.0000000000e+02 0.0000e+00 0.0000e+00
<mgrwt>
<rscale>  0 0.47525503E+03</rscale>
<asrwt>0</asrwt>
<pdfrwt beam="1">  1        4 0.91341294E-01 0.47525503E+03</pdfrwt>
<pdfrwt beam="2">  1       -4 0.38637258E-01 0.47525503E+03</pdfrwt>
<totfact> 0.12976007E+01</totfact>
</mgrwt>
</event>
<event>
 6      1 +2.6141198e-09 3.96611500e+02 7.81860800e-03 1.04495900e-01
        4 -1    0    0  501    0 +0.0000000000e+00 +0.0000000000e+00 +4.3636619067e+01 4.3655096193e+01 1.2700000000e+00 0.0000e+00 -1.0000e+00
       -4 -1    0    0    0  501 -0.0000000000e+00 -0.0000000000e+00 -9.0098692021e+02 9.0098781528e+02 1.2700000000e+00 0.0000e+00 -1.0000e+00
      -13  1    1    2    0    0 -5.6725328511e+01 +1.7705069730e+01 -2.1675028657e+02 2.2474859350e+02 1.0566000000e-01 0.0000e+00 1.0000e+00
       13  1    1    2    0    0 -9.5057277409e+00 -5.4868426365e+01 -1.2694257152e+02 1.3861937346e+02 1.0566000000e-01 0.0000e+00 -1.0000e+00
    10002  1    1    2    0    0 +7.6601899859e+00 +4.5094264124e+01 -4.1357811485e+02 4.2794745969e+02 1.0000000000e+02 0.0000e+00 0.0000e+00
   -10002  1    1    2    0    0 +5.8570866266e+01 -7.9309074890e+00 -1.0007932820e+02 1.5332748482e+02 1.0000000000e+02 0.0000e+00 0.0000e+00
<mgrwt>
<rscale>  0 0.39661151E+03</rscale>
<asrwt>0</asrwt>
<pdfrwt beam="1">  1        4 0.10911579E-01 0.39661151E+03</pdfrwt>
<pdfrwt beam="2">  1       -4 0.22524909E+00 0.39661151E+03</pdfrwt>
<totfact> 0.12241700E+01</totfact>
</mgrwt>
</event>
<event>
 6      1 +2.6141198e-09 3.71001600e+02 7.81860800e-03 1.05431100e-01
       -4 -1    0    0    0  501 -0.0000000000e+00 +0.0000000000e+00 +4.4989705520e+02 4.4989884772e+02 1.2700000000e+00 0.0000e+00 -1.0000e+00
        4 -1    0    0  501    0 +0.0000000000e+00 -0.0000000000e+00 -7.6478146045e+01 7.6488690160e+01 1.2700000000e+00 0.0000e+00 -1.0000e+00
      -13  1    1    2    0    0 -1.5064377864e+01 -4.1890637360e+01 +1.1837960843e+02 1.2647333250e+02 1.0566000000e-01 0.0000e+00 1.0000e+00
       13  1    1    2    0    0 -4.8903047537e-01 +4.9380508741e+01 +4.7501005951e+01 6.8520292795e+01 1.0566000000e-01 0.0000e+00 -1.0000e+00
    10002  1    1    2    0    0 +7.0943521819e+01 -3.1321150681e+00 +4.0943420588e+01 1.2930257972e+02 1.0000000000e+02 0.0000e+00 0.0000e+00
   -10002  1    1    2    0    0 -5.5390113480e+01 -4.3577563134e+00 +1.6659487419e+02 2.0209133286e+02 1.0000000000e+02 0.0000e+00 0.0000e+00
<mgrwt>
<rscale>  0 0.37100156E+03</rscale>
<asrwt>0</asrwt>
<pdfrwt beam="1">  1        4 0.19121079E-01 0.37100156E+03</pdfrwt>
<pdfrwt beam="2">  1       -4 0.11247580E+00 0.37100156E+03</pdfrwt>
<totfact> 0.29785286E+01</totfact>
</mgrwt>
</event>
<event>
 6      1 +2.6141198e-09 3.33646600e+02 7.81860800e-03 1.06953500e-01
        4 -1    0    0  501    0 +0.0000000000e+00 +0.0000000000e+00 +3.9110234100e+02 3.9110440298e+02 1.2700000000e+00 0.0000e+00 1.0000e+00
       -4 -1    0    0    0  501 -0.0000000000e+00 -0.0000000000e+00 -7.1149943589e+01 7.1161277200e+01 1.2700000000e+00 0.0000e+00 1.0000e+00
      -13  1    1    2    0    0 -2.3027242866e+01 +3.2649675535e+01 +7.4338725926e+00 4.0639006537e+01 1.0566000000e-01 0.0000e+00 1.0000e+00
       13  1    1    2    0    0 +4.0879870166e+01 -2.6738496752e+01 +7.3121403608e+01 8.7936692131e+01 1.0566000000e-01 0.0000e+00 -1.0000e+00
    10002  1    1    2    0    0 -1.1676868017e+01 +4.0221281367e+01 +6.2269720137e+01 1.2502647227e+02 1.0000000000e+02 0.0000e+00 0.0000e+00
   -10002  1    1    2    0    0 -6.1757592826e+00 -4.6132460150e+01 +1.7712740107e+02 2.0866350925e+02 1.0000000000e+02 0.0000e+00 0.0000e+00
<mgrwt>
<rscale>  0 0.33364655E+03</rscale>
<asrwt>0</asrwt>
<pdfrwt beam="1">  1        4 0.97777259E-01 0.33364655E+03</pdfrwt>
<pdfrwt beam="2">  1       -4 0.17789160E-01 0.33364655E+03</pdfrwt>
<totfact> 0.47022332E+01</totfact>
</mgrwt>
</event>
<event>
 6      1 +2.6141198e-09 3.59608000e+02 7.81860800e-03 1.05873900e-01
       -4 -1    0    0    0  501 -0.0000000000e+00 +0.0000000000e+00 +5.2755670164e+02 5.2755823029e+02 1.2700000000e+00 0.0000e+00 -1.0000e+00
        4 -1    0    0  501    0 +0.0000000000e+00 -0.0000000000e+00 -6.1273334339e+01 6.1286494443e+01 1.2700000000e+00 0.0000e+00 -1.0000e+00
      -13  1    1    2    0    0 +3.7479885156e+01 +6.2261133509e-01 +1.0923046791e+02 1.1548348678e+02 1.0566000000e-01 0.0000e+00 1.0000e+00
       13  1    1    2    0    0 -4.8430919340e+01 +4.9455666554e+00 +3.6853578598e+01 6.1059069737e+01 1.0566000000e-01 0.0000e+00 -1.0000e+00
    10002  1    1    2    0    0 -6.8389086282e+01 -3.4262781439e+01 +1.8834763107e+02 2.2655205902e+02 1.0000000000e+02 0.0000e+00 0.0000e+00
   -10002  1    1    2    0    0 +7.9340120467e+01 +2.8694603448e+01 +1.3185168972e+02 1.8575010919e+02 1.0000000000e+02 0.0000e+00 0.0000e+00
<mgrwt>
<rscale>  0 0.35960802E+03</rscale>
<asrwt>0</asrwt>
<pdfrwt beam="1">  1        4 0.15320170E-01 0.35960802E+03</pdfrwt>
<pdfrwt beam="2">  1       -4 0.13189101E+00 0.35960802E+03</pdfrwt>
<totfact> 0.29894527E+01</totfact>
</mgrwt>
</event>
<event>
 6      1 +2.6141198e-09 4.57608300e+02 7.81860800e-03 1.02547700e-01
       -4 -1    0    0    0  501 -0.0000000000e+00 +0.0000000000e+00 +3.1033003862e+02 3.1033263730e+02 1.2700000000e+00 0.0000e+00 1.0000e+00
        4 -1    0    0  501    0 +0.0000000000e+00 -0.0000000000e+00 -1.6868995925e+02 1.6869473984e+02 1.2700000000e+00 0.0000e+00 1.0000e+00
      -13  1    1    2    0    0 +3.9907574296e+01 +5.3430538191e+01 +4.5267176474e+01 8.0601273734e+01 1.0566000000e-01 0.0000e+00 -1.0000e+00
       13  1    1    2    0    0 -7.6915275487e+00 -2.9712797440e+01 +9.0655766743e+01 9.5710444234e+01 1.0566000000e-01 0.0000e+00 1.0000e+00
    10002  1    1    2    0    0 +6.6513093022e+01 -8.6738015270e+01 -5.9360957557e+00 1.4826568069e+02 1.0000000000e+02 0.0000e+00 0.0000e+00
   -10002  1    1    2    0    0 -9.8729139770e+01 +6.3020274518e+01 +1.1653231913e+01 1.5444997849e+02 1.0000000000e+02 0.0000e+00 0.0000e+00
<mgrwt>
<rscale>  0 0.45760826E+03</rscale>
<asrwt>0</asrwt>
<pdfrwt beam="1">  1        4 0.42173412E-01 0.45760826E+03</pdfrwt>
<pdfrwt beam="2">  1       -4 0.77583432E-01 0.45760826E+03</pdfrwt>
<totfact> 0.15767834E+01</totfact>
</mgrwt>
</event>
<event>
 6      1 +2.6141198e-09 4.38695900e+02 7.81860800e-03 1.03114800e-01
        4 -1    0    0  501    0 +0.0000000000e+00 +0.0000000000e+00 +1.0489447848e+02 1.0490216640e+02 1.2700000000e+00 0.0000e+00 -1.0000e+00
       -4 -1    0    0    0  501 -0.0000000000e+00 -0.0000000000e+00 -4.5865952319e+02 4.5866128147e+02 1.2700000000e+00 0.0000e+00 -1.0000e+00
      -13  1    1    2    0    0 -7.1990369180e+01 -1.7732807251e+01 +1.1630261359e+01 7.5048916388e+01 1.0566000000e-01 0.0000e+00 1.0000e+00
       13  1    1    2    0    0 +3.4991845386e+01 -6.9931234103e+00 +1.1559609527e+00 3.5702666964e+01 1.0566000000e-01 0.0000e+00 -1.0000e+00
    10002  1    1    2    0    0 +1.0865038362e+01 +4.1314317232e+01 -3.2050702701e+02 3.3845188170e+02 1.0000000000e+02 0.0000e+00 0.0000e+00
   -10002  1    1    2    0    0 +2.6133485432e+01 -1.6588386570e+01 -4.6044240022e+01 1.1435998281e+02 1.0000000000e+02 0.0000e+00 0.0000e+00
<mgrwt>
<rscale>  0 0.43869585E+03</rscale>
<asrwt>0</asrwt>
<pdfrwt beam="1">  1        4 0.26224802E-01 0.43869585E+03</pdfrwt>
<pdfrwt beam="2">  1       -4 0.11466606E+00 0.43869585E+03</pdfrwt>
<totfact> 0.15975498E+01</totfact>
</mgrwt>
</event>
<event>
 6      1 +2.6141198e-09 3.84802100e+02 7.81860800e-03 1.04917300e-01
        4 -1    0    0  501    0 +0.0000000000e+00 +0.0000000000e+00 +8.5247304120e+01 8.5256763718e+01 1.2700000000e+00 0.0000e+00 -1.0000e+00
       -4 -1    0    0    0  501 -0.0000000000e+00 -0.0000000000e+00 -4.3420993093e+02 4.3421178821e+02 1.2700000000e+00 0.0000e+00 -1.0000e+00
      -13  1    1    2    0    0 -4.1959798021e+00 -2.3536589823e+01 -1.4333521975e+02 1.4531542826e+02 1.0566000000e-01 0.0000e+00 1.0000e+00
       13  1    1    2    0    0 +1.6864008449e+01 -3.8750762528e+01 -7.8061705113e+00 4.2976317194e+01 1.0566000000e-01 0.0000e+00 -1.0000e+00
    10002  1    1    2    0    0 +5.5709835176e+01 +4.3879088741e+01 -3.5174573423e+01 1.2753905590e+02 1.0000000000e+02 0.0000e+00 0.0000e+00
   -10002  1    1    2    0    0 -6.8377863823e+01 +1.8408263610e+01 -1.6264666313e+02 2.0363775057e+02 1.0000000000e+02 0.0000e+00 0.0000e+00
<mgrwt>
<rscale>  0 0.38480211E+03</rscale>
<asrwt>0</asrwt>
<pdfrwt beam="1">  1        4 0.21313242E-01 0.38480211E+03</pdfrwt>
<pdfrwt beam="2">  1       -4 0.10855389E+00 0.38480211E+03</pdfrwt>
<totfact> 0.26661651E+01</totfact>
</mgrwt>
</event>
<event>
 6      1 +2.6141198e-09 4.30210800e+02 7.81860800e-03 1.03379300e-01
        4 -1    0    0  501    0 +0.0000000000e+00 +0.0000000000e+00 +1.5979138853e+02 1.5979643534e+02 1.2700000000e+00 0.0000e+00 1.0000e+00
       -4 -1    0    0    0  501 -0.0000000000e+00 -0.0000000000e+00 -2.8955609533e+02 2.8955888045e+02 1.2700000000e+00 0.0000e+00 1.0000e+00
      -13  1    1    2    0    0 -3.2444796919e+01 +2.3606511275e+01 -6.8909476990e+01 7.9739948613e+01 1.0566000000e-01 0.0000e+00 -1.0000e+00
       13  1    1    2    0    0 +6.9565619421e+01 +7.4295473138e+00 -1.0333540995e+02 1.2479099203e+02 1.0566000000e-01 0.0000e+00 1.0000e+00
    10002  1    1    2    0    0 -6.1375358886e+01 +1.1041141605e+01 +6.0060545868e+01 1.3227286440e+02 1.0000000000e+02 0.0000e+00 0.0000e+00
   -10002  1    1    2    0    0 +2.4254536384e+01 -4.2077200194e+01 -1.7580365740e+01 1.1255151074e+02 1.0000000000e+02 0.0000e+00 0.0000e+00
<mgrwt>
<rscale>  0 0.43021079E+03</rscale>
<asrwt>0</asrwt>
<pdfrwt beam="1">  1        4 0.39948826E-01 0.43021079E+03</pdfrwt>
<pdfrwt beam="2">  1       -4 0.72390002E-01 0.43021079E+03</pdfrwt>
<totfact> 0.20459254E+01</totfact>
</mgrwt>
</event>
<event>
 6      1 +2.6141198e-09 6.73940600e+02 7.81860800e-03 9.76286500e-02
       -4 -1    0    0    0  501 -0.0000000000e+00 +0.0000000000e+00 +4.2500388282e+02 4.2500578033e+02 1.2700000000e+00 0.0000e+00 1.0000e+00
        4 -1    0    0  501    0 +0.0000000000e+00 -0.0000000000e+00 -2.6716764346e+02 2.6717066196e+02 1.2700000000e+00 0.0000e+00 1.0000e+00
      -13  1    1    2    0    0 -5.5600082638e+01 +6.0908951128e+01 +1.3318512796e+01 8.3538395149e+01 1.0566000000e-01 0.0000e+00 -1.0000e+00
       13  1    1    2    0    0 -5.9767092332e+01 -3.3810611139e+01 +6.2134073229e+01 9.2606246936e+01 1.0566000000e-01 0.0000e+00 1.0000e+00
    10002  1    1    2    0    0 -1.4981577579e+02 -8.9169857990e+01 +1.0171431017e+02 2.2525947515e+02 1.0000000000e+02 0.0000e+00 0.0000e+00
   -10002  1    1    2    0    0 +2.6518295076e+02 +6.2071518001e+01 -1.9330656837e+01 2.9077232505e+02 1.0000000000e+02 0.0000e+00 0.0000e+00
<mgrwt>
<rscale>  0 0.67394061E+03</rscale>
<asrwt>0</asrwt>
<pdfrwt beam="1">  1        4 0.66792526E-01 0.67394061E+03</pdfrwt>
<pdfrwt beam="2">  1       -4 0.10625158E+00 0.67394061E+03</pdfrwt>
<totfact> 0.29079431E+00</totfact>
</mgrwt>
</event>
<event>
 6      1 +2.6141198e-09 5.94901100e+02 7.81860800e-03 9.91604200e-02
       -4 -1    0    0    0  501 -0.0000000000e+00 +0.0000000000e+00 +4.3065469133e+02 4.3065656394e+02 1.2700000000e+00 0.0000e+00 1.0000e+00
        4 -1    0    0  501    0 +0.0000000000e+00 -0.0000000000e+00 -2.0544297600e+02 2.0544690139e+02 1.2700000000e+00 0.0000e+00 1.0000e+00
      -13  1    1    2    0    0 +4.9086302903e+01 +3.8391132676e+01 +2.7713483807e+01 6.8201118390e+01 1.0566000000e-01 0.0000e+00 1.0000e+00
       13  1    1    2    0    0 +3.6817981544e+01 -3.8469648006e+01 +1.1044484494e+02 1.2261138822e+02 1.0566000000e-01 0.0000e+00 -1.0000e+00
    10002  1    1    2    0    0 +5.2017151117e+01 +1.1530737721e+02 -8.0298200421e+01 1.8013710401e+02 1.0000000000e+02 0.0000e+00 0.0000e+00
   -10002  1    1    2    0    0 -1.3792143556e+02 -1.1522886188e+02 +1.6735158700e+02 2.6515385471e+02 1.0000000000e+02 0.0000e+00 0.0000e+00
<mgrwt>
<rscale>  0 0.59490109E+03</rscale>
<asrwt>0</asrwt>
<pdfrwt beam="1">  1        4 0.51361469E-01 0.59490109E+03</pdfrwt>
<pdfrwt beam="2">  1       -4 0.10766440E+00 0.59490109E+03</pdfrwt>
<totfact> 0.49422579E+00</totfact>
</mgrwt>
</event>
<event>
 6      1 +2.6141198e-09 3.46629900e+02 7.81860800e-03 1.06400700e-01
       -1 -1    0    0    0  501 -0.0000000000e+00 +0.0000000000e+00 +7.1471223380e+02 7.1471223381e+02 5.0400000000e-03 0.0000e+00 1.0000e+00
        1 -1    0    0  501    0 +0.0000000000e+00 -0.0000000000e+00 -4.2028207507e+01 4.2028207809e+01 5.0400000000e-03 0.0000e+00 1.0000e+00
      -13  1    1    2    0    0 +5.9861726806e+01 -2.7528475394e+01 +1.3059862467e+02 1.4627800663e+02 1.0566000000e-01 0.0000e+00 -1.0000e+00
       13  1    1    2    0    0 -2.7422561792e+01 +1.1080845568e+01 +1.6182731720e+02 1.6450797485e+02 1.0566000000e-01 0.0000e+00 1.0000e+00
    10002  1    1    2    0    0 -6.4802985163e+01 +3.9130678098e+01 +2.0833534305e+02 2.4317535240e+02 1.0000000000e+02 0.0000e+00 0.0000e+00
   -10002  1    1    2    0    0 +3.2363820150e+01 -2.2683048272e+01 +1.7192274137e+02 2.0277910774e+02 1.0000000000e+02 0.0000e+00 0.0000e+00
<mgrwt>
<rscale>  0 0.34662991E+03</rscale>
<asrwt>0</asrwt>
<pdfrwt beam="1">  1        1 0.10507052E-01 0.34662991E+03</pdfrwt>
<pdfrwt beam="2">  1       -1 0.17867806E+00 0.34662991E+03</pdfrwt>
<totfact> 0.13944928E+02</totfact>
</mgrwt>
</event>
<event>
 6      1 +2.6141198e-09 3.95065200e+02 7.81860800e-03 1.04550200e-01
       -4 -1    0    0    0  501 -0.0000000000e+00 +0.0000000000e+00 +1.4798602640e+02 1.4799147580e+02 1.2700000000e+00 0.0000e+00 1.0000e+00
        4 -1    0    0  501    0 +0.0000000000e+00 -0.0000000000e+00 -2.6365588292e+02 2.6365894163e+02 1.2700000000e+00 0.0000e+00 1.0000e+00
      -13  1    1    2    0    0 -5.2250111811e+01 +6.9139595900e+01 -4.5376233731e+01 9.7823165238e+01 1.0566000000e-01 0.0000e+00 -1.0000e+00
       13  1    1    2    0    0 +3.0808306866e+01 -2.8871926016e+00 +1.1523397538e+01 3.3019501934e+01 1.0566000000e-01 0.0000e+00 1.0000e+00
    10002  1    1    2    0    0 +1.7518046015e+01 -3.8451280363e+01 +4.4451285081e+01 1.1730856594e+02 1.0000000000e+02 0.0000e+00 0.0000e+00
   -10002  1    1    2    0    0 +3.9237589300e+00 -2.7801122935e+01 -1.2626830541e+02 1.6349918431e+02 1.0000000000e+02 0.0000e+00 0.0000e+00
<mgrwt>
<rscale>  0 0.39506525E+03</rscale>
<asrwt>0</asrwt>
<pdfrwt beam="1">  1        4 0.65915034E-01 0.39506525E+03</pdfrwt>
<pdfrwt beam="2">  1       -4 0.36997570E-01 0.39506525E+03</pdfrwt>
<totfact> 0.29128053E+01</totfact>
</mgrwt>
</event>
<event>
 6      1 +2.6141198e-09 3.91723300e+02 7.81860800e-03 1.04668400e-01
        4 -1    0    0  501    0 +0.0000000000e+00 +0.0000000000e+00 +1.1542307835e+02 1.1543006505e+02 1.2700000000e+00 0.0000e+00 -1.0000e+00
       -4 -1    0    0    0  501 -0.0000000000e+00 -0.0000000000e+00 -3.3233977642e+02 3.3234220299e+02 1.2700000000e+00 0.0000e+00 -1.0000e+00
      -13  1    1    2    0    0 -3.6730084561e+01 +2.3791862568e+01 -4.7103312333e+01 6.4295295575e+01 1.0566000000e-01 0.0000e+00 -1.0000e+00
       13  1    1    2    0    0 -5.2643691276e+01 -3.6698265738e+01 +2.4587447147e+01 6.8721718987e+01 1.0566000000e-01 0.0000e+00 1.0000e+00
    10002  1    1    2    0    0 +1.0106939868e+02 +1.7286791305e+01 -8.7492289090e+01 1.6783550624e+02 1.0000000000e+02 0.0000e+00 0.0000e+00
   -10002  1    1    2    0    0 -1.1695622845e+01 -4.3803881348e+00 -1.0690854379e+02 1.4691974724e+02 1.0000000000e+02 0.0000e+00 0.0000e+00
<mgrwt>
<rscale>  0 0.39172331E+03</rscale>
<asrwt>0</asrwt>
<pdfrwt beam="1">  1        4 0.28856947E-01 0.39172331E+03</pdfrwt>
<pdfrwt beam="2">  1       -4 0.83086119E-01 0.39172331E+03</pdfrwt>
<totfact> 0.28225568E+01</totfact>
</mgrwt>
</event>
<event>
 6      1 +2.6141198e-09 3.75505400e+02 7.81860800e-03 1.05260800e-01
        4 -1    0    0  501    0 +0.0000000000e+00 +0.0000000000e+00 +8.6301462347e+02 8.6301555792e+02 1.2700000000e+00 0.0000e+00 1.0000e+00
       -4 -1    0    0    0  501 -0.0000000000e+00 -0.0000000000e+00 -4.0835618518e+01 4.0855362436e+01 1.2700000000e+00 0.0000e+00 1.0000e+00
      -13  1    1    2    0    0 -1.3021332482e+01 +3.7845461661e+01 +7.1236532497e+01 8.1709783956e+01 1.0566000000e-01 0.0000e+00 -1.0000e+00
       13  1    1    2    0    0 -1.9066976169e+01 -6.6755038439e+01 +1.2259033153e+02 1.4088358771e+02 1.0566000000e-01 0.0000e+00 1.0000e+00
    10002  1    1    2    0    0 -2.5147049193e+01 -4.8561863711e+00 +4.7722000529e+02 4.8825699184e+02 1.0000000000e+02 0.0000e+00 0.0000e+00
   -10002  1    1    2    0    0 +5.7235357844e+01 +3.3765763150e+01 +1.5113213563e+02 1.9302055686e+02 1.0000000000e+02 0.0000e+00 0.0000e+00
<mgrwt>
<rscale>  0 0.37550543E+03</rscale>
<asrwt>0</asrwt>
<pdfrwt beam="1">  1        4 0.21575625E+00 0.37550543E+03</pdfrwt>
<pdfrwt beam="2">  1       -4 0.10211489E-01 0.37550543E+03</pdfrwt>
<totfact> 0.15676227E+01</totfact>
</mgrwt>
</event>
<event>
 6      1 +2.6141198e-09 4.53891900e+02 7.81860800e-03 1.02656800e-01
        4 -1    0    0  501    0 +0.0000000000e+00 +0.0000000000e+00 +4.6878920314e+02 4.6879092342e+02 1.2700000000e+00 0.0000e+00 1.0000e+00
       -4 -1    0    0    0  501 -0.0000000000e+00 -0.0000000000e+00 -1.0986139615e+02 1.0986873651e+02 1.2700000000e+00 0.0000e+00 1.0000e+00
      -13  1    1    2    0    0 +3.1905685578e+01 +2.9689810314e+01 +7.0890625445e+01 8.3216281752e+01 1.0566000000e-01 0.0000e+00 1.0000e+00
       13  1    1    2    0    0 -5.4595365040e+01 +2.9558743969e+01 +2.8680979042e+01 6.8388470898e+01 1.0566000000e-01 0.0000e+00 -1.0000e+00
    10002  1    1    2    0    0 +1.2633189138e+02 +3.6964361491e+01 +1.4105767281e+02 2.1730940583e+02 1.0000000000e+02 0.0000e+00 0.0000e+00
   -10002  1    1    2    0    0 -1.0364221192e+02 -9.6212915775e+01 +1.1829852969e+02 2.0974550145e+02 1.0000000000e+02 0.0000e+00 0.0000e+00
<mgrwt>
<rscale>  0 0.45389187E+03</rscale>
<asrwt>0</asrwt>
<pdfrwt beam="1">  1        4 0.11719843E+00 0.45389187E+03</pdfrwt>
<pdfrwt beam="2">  1       -4 0.27466482E-01 0.45389187E+03</pdfrwt>
<totfact> 0.13895944E+01</totfact>
</mgrwt>
</event>
<event>
 6      1 +2.6141198e-09 3.60765300e+02 7.81860800e-03 1.05828100e-01
        4 -1    0    0  501    0 +0.0000000000e+00 +0.0000000000e+00 +2.7061296365e+02 2.7061594372e+02 1.2700000000e+00 0.0000e+00 -1.0000e+00
       -4 -1    0    0    0  501 -0.0000000000e+00 -0.0000000000e+00 -1.2023074563e+02 1.2023745296e+02 1.2700000000e+00 0.0000e+00 -1.0000e+00
      -13  1    1    2    0    0 +5.7658350003e+01 -2.0136737278e+01 +9.2364154282e+01 1.1072994931e+02 1.0566000000e-01 0.0000e+00 -1.0000e+00
       13  1    1    2    0    0 -1.2684879764e+01 +1.6114152294e+01 -1.5682037609e+01 2.5816846174e+01 1.0566000000e-01 0.0000e+00 1.0000e+00
    10002  1    1    2    0    0 -4.2185057523e+01 -3.5905155876e+01 -1.4309315360e+01 1.1521074517e+02 1.0000000000e+02 0.0000e+00 0.0000e+00
   -10002  1    1    2    0    0 -2.7884127169e+00 +3.9927740860e+01 +8.8009416703e+01 1.3909585603e+02 1.0000000000e+02 0.0000e+00 0.0000e+00
<mgrwt>
<rscale>  0 0.36076525E+03</rscale>
<asrwt>0</asrwt>
<pdfrwt beam="1">  1        4 0.67654451E-01 0.36076525E+03</pdfrwt>
<pdfrwt beam="2">  1       -4 0.30058898E-01 0.36076525E+03</pdfrwt>
<totfact> 0.40988163E+01</totfact>
</mgrwt>
</event>
<event>
 6      1 +2.6141198e-09 5.79471200e+02 7.81860800e-03 9.94893700e-02
        4 -1    0    0  501    0 +0.0000000000e+00 +0.0000000000e+00 +4.1532998871e+02 4.1533193042e+02 1.2700000000e+00 0.0000e+00 -1.0000e+00
       -4 -1    0    0    0  501 -0.0000000000e+00 -0.0000000000e+00 -2.0211611857e+02 2.0212010856e+02 1.2700000000e+00 0.0000e+00 -1.0000e+00
      -13  1    1    2    0    0 +2.5363235774e+01 -2.7879389187e+01 -2.5701475287e+01 4.5619415454e+01 1.0566000000e-01 0.0000e+00 1.0000e+00
       13  1    1    2    0    0 +7.4281038112e+01 -1.4075047695e+01 +6.0719554191e+01 9.6967288380e+01 1.0566000000e-01 0.0000e+00 -1.0000e+00
    10002  1    1    2    0    0 -2.8892839998e-01 +4.7565675343e+01 -1.0869200637e+02 1.5516613419e+02 1.0000000000e+02 0.0000e+00 0.0000e+00
   -10002  1    1    2    0    0 -9.9355345487e+01 -5.6112384609e+00 +2.8688779761e+02 3.1969920096e+02 1.0000000000e+02 0.0000e+00 0.0000e+00
<mgrwt>
<rscale>  0 0.57947120E+03</rscale>
<asrwt>0</asrwt>
<pdfrwt beam="1">  1        4 0.10383324E+00 0.57947120E+03</pdfrwt>
<pdfrwt beam="2">  1       -4 0.50529771E-01 0.57947120E+03</pdfrwt>
<totfact> 0.55779746E+00</totfact>
</mgrwt>
</event>
<event>
 6      1 +2.6141198e-09 5.50461000e+02 7.81860800e-03 1.00138700e-01
       -4 -1    0    0    0  501 -0.0000000000e+00 +0.0000000000e+00 +9.8578441720e+01 9.8586622176e+01 1.2700000000e+00 0.0000e+00 1.0000e+00
        4 -1    0    0  501    0 +0.0000000000e+00 -0.0000000000e+00 -7.6840153367e+02 7.6840258319e+02 1.2700000000e+00 0.0000e+00 1.0000e+00
      -13  1    1    2    0    0 +4.6811412990e+01 -1.3301417445e+02 -3.0336687642e+02 3.3453781828e+02 1.0566000000e-01 0.0000e+00 -1.0000e+00
       13  1    1    2    0    0 +7.6057423692e+00 +1.6197400051e+01 -1.5920595379e+01 2.3951609688e+01 1.0566000000e-01 0.0000e+00 1.0000e+00
    10002  1    1    2    0    0 -4.1443877620e+01 +3.0738220170e+01 +2.0596737440e+01 1.1439693512e+02 1.0000000000e+02 0.0000e+00 0.0000e+00
   -10002  1    1    2    0    0 -1.2973277739e+01 +8.6078554228e+01 -3.7113235760e+02 3.9410284227e+02 1.0000000000e+02 0.0000e+00 0.0000e+00
<mgrwt>
<rscale>  0 0.55046100E+03</rscale>
<asrwt>0</asrwt>
<pdfrwt beam="1">  1        4 0.19210152E+00 0.55046100E+03</pdfrwt>
<pdfrwt beam="2">  1       -4 0.24645766E-01 0.55046100E+03</pdfrwt>
<totfact> 0.46190904E+00</totfact>
</mgrwt>
</event>
<event>
 6      1 +2.6141198e-09 4.53639700e+02 7.81860800e-03 1.02664200e-01
        4 -1    0    0  501    0 +0.0000000000e+00 +0.0000000000e+00 +5.7038132194e+02 5.7038273582e+02 1.2700000000e+00 0.0000e+00 1.0000e+00
       -4 -1    0    0    0  501 -0.0000000000e+00 -0.0000000000e+00 -9.0191996529e+01 9.0200937567e+01 1.2700000000e+00 0.0000e+00 1.0000e+00
      -13  1    1    2    0    0 -9.8851146902e+00 +4.6935061414e+01 +1.0027215371e+02 1.1115363897e+02 1.0566000000e-01 0.0000e+00 -1.0000e+00
       13  1    1    2    0    0 +5.5306389892e+01 -3.5447150538e+01 +9.4445371229e+01 1.1504449815e+02 1.0566000000e-01 0.0000e+00 1.0000e+00
    10002  1    1    2    0    0 +8.6232414577e+01 -7.6284414344e+00 +2.1964526346e+02 2.5639474293e+02 1.0000000000e+02 0.0000e+00 0.0000e+00
   -10002  1    1    2    0    0 -1.3165368978e+02 -3.8594694414e+00 +6.5826537012e+01 1.7799079333e+02 1.0000000000e+02 0.0000e+00 0.0000e+00
<mgrwt>
<rscale>  0 0.45363973E+03</rscale>
<asrwt>0</asrwt>
<pdfrwt beam="1">  1        4 0.14259662E+00 0.45363973E+03</pdfrwt>
<pdfrwt beam="2">  1       -4 0.22549294E-01 0.45363973E+03</pdfrwt>
<totfact> 0.12288868E+01</totfact>
</mgrwt>
</event>
<event>
 6      1 +2.6141198e-09 4.26742200e+02 7.81860800e-03 1.03489400e-01
       -4 -1    0    0    0  501 -0.0000000000e+00 +0.0000000000e+00 +4.9882015280e+02 4.9882176952e+02 1.2700000000e+00 0.0000e+00 1.0000e+00
        4 -1    0    0  501    0 +0.0000000000e+00 -0.0000000000e+00 -9.1263645687e+01 9.1272481746e+01 1.2700000000e+00 0.0000e+00 1.0000e+00
      -13  1    1    2    0    0 +3.9006329384e+01 +8.6111943598e+00 +7.8354271359e+01 8.7949129640e+01 1.0566000000e-01 0.0000e+00 -1.0000e+00
       13  1    1    2    0    0 -3.1529010931e+01 -3.1203548195e+01 +7.3904958667e+00 4.4970774326e+01 1.0566000000e-01 0.0000e+00 1.0000e+00
    10002  1    1    2    0    0 -1.0707349582e+02 +7.8485648690e+01 +2.1410162141e+02 2.7104286533e+02 1.0000000000e+02 0.0000e+00 0.0000e+00
   -10002  1    1    2    0    0 +9.9596177365e+01 -5.5893294855e+01 +1.0771011848e+02 1.8613148197e+02 1.0000000000e+02 0.0000e+00 0.0000e+00
<mgrwt>
<rscale>  0 0.42674222E+03</rscale>
<asrwt>0</asrwt>
<pdfrwt beam="1">  1        4 0.22817218E-01 0.42674222E+03</pdfrwt>
<pdfrwt beam="2">  1       -4 0.12470634E+00 0.42674222E+03</pdfrwt>
<totfact> 0.16844706E+01</totfact>
</mgrwt>
</event>
<event>
 6      1 +2.6141198e-09 3.76132600e+02 7.81860800e-03 1.05237200e-01
       -4 -1    0    0    0  501 -0.0000000000e+00 +0.0000000000e+00 +1.8023092569e+02 1.8023540017e+02 1.2700000000e+00 0.0000e+00 1.0000e+00
        4 -1    0    0  501    0 +0.0000000000e+00 -0.0000000000e+00 -1.9623336121e+02 1.9623747082e+02 1.2700000000e+00 0.0000e+00 1.0000e+00
      -13  1    1    2    0    0 +1.4034097396e+01 +4.5985806465e+01 +2.7262983448e+01 5.5271436714e+01 1.0566000000e-01 0.0000e+00 1.0000e+00
       13  1    1    2    0    0 -5.1422035938e+01 -6.6985979038e+00 -4.8964766523e+01 7.1320800041e+01 1.0566000000e-01 0.0000e+00 -1.0000e+00
    10002  1    1    2    0    0 +6.2625831516e+01 -5.5608845079e+01 +4.5480219534e+01 1.3814046762e+02 1.0000000000e+02 0.0000e+00 0.0000e+00
   -10002  1    1    2    0    0 -2.5237892975e+01 +1.6321636519e+01 -3.9780871978e+01 1.1174016662e+02 1.0000000000e+02 0.0000e+00 0.0000e+00
<mgrwt>
<rscale>  0 0.37613262E+03</rscale>
<asrwt>0</asrwt>
<pdfrwt beam="1">  1        4 0.49059413E-01 0.37613262E+03</pdfrwt>
<pdfrwt beam="2">  1       -4 0.45058805E-01 0.37613262E+03</pdfrwt>
<totfact> 0.36526076E+01</totfact>
</mgrwt>
</event>
<event>
 6      1 +2.6141198e-09 7.25762100e+02 7.81860800e-03 9.67416200e-02
       -4 -1    0    0    0  501 -0.0000000000e+00 +0.0000000000e+00 +3.8958204891e+02 3.8958411894e+02 1.2700000000e+00 0.0000e+00 -1.0000e+00
        4 -1    0    0  501    0 +0.0000000000e+00 -0.0000000000e+00 -3.3800594382e+02 3.3800832971e+02 1.2700000000e+00 0.0000e+00 -1.0000e+00
      -13  1    1    2    0    0 -2.4875736674e+01 +1.0593224107e+02 -3.8560110904e+01 1.1544407863e+02 1.0566000000e-01 0.0000e+00 -1.0000e+00
       13  1    1    2    0    0 -2.3304748989e+01 +2.9181157262e+01 +4.5908201098e+01 5.9179602539e+01 1.0566000000e-01 0.0000e+00 1.0000e+00
    10002  1    1    2    0    0 +1.5985718165e+02 -2.7713869230e+02 -2.2494164242e+01 3.3595559337e+02 1.0000000000e+02 0.0000e+00 0.0000e+00
   -10002  1    1    2    0    0 -1.1167669598e+02 +1.4202529397e+02 +6.6722179141e+01 2.1701317412e+02 1.0000000000e+02 0.0000e+00 0.0000e+00
<mgrwt>
<rscale>  0 0.72576214E+03</rscale>
<asrwt>0</asrwt>
<pdfrwt beam="1">  1        4 0.84502043E-01 0.72576214E+03</pdfrwt>
<pdfrwt beam="2">  1       -4 0.97396069E-01 0.72576214E+03</pdfrwt>
<totfact> 0.21117611E+00</totfact>
</mgrwt>
</event>
<event>
 6      1 +2.6141198e-09 3.07233000e+02 7.81860800e-03 1.08168000e-01
        4 -1    0    0  501    0 +0.0000000000e+00 +0.0000000000e+00 +1.0611785299e+02 1.0612545229e+02 1.2700000000e+00 0.0000e+00 -1.0000e+00
       -4 -1    0    0    0  501 -0.0000000000e+00 -0.0000000000e+00 -2.2235823879e+02 2.2236186557e+02 1.2700000000e+00 0.0000e+00 -1.0000e+00
      -13  1    1    2    0    0 +7.9914554849e-01 -1.5133211140e+01 -4.2722072799e+01 4.5330336214e+01 1.0566000000e-01 0.0000e+00 1.0000e+00
       13  1    1    2    0    0 -1.4180096481e+01 -2.5126359390e+01 +2.5904387708e+01 3.8774444406e+01 1.0566000000e-01 0.0000e+00 -1.0000e+00
    10002  1    1    2    0    0 +2.9683898471e+01 -1.8581032008e+01 -4.3166593609e+01 1.1441041641e+02 1.0000000000e+02 0.0000e+00 0.0000e+00
   -10002  1    1    2    0    0 -1.6302947538e+01 +5.8840602539e+01 -5.6256107107e+01 1.2997212083e+02 1.0000000000e+02 0.0000e+00 0.0000e+00
<mgrwt>
<rscale>  0 0.30723296E+03</rscale>
<asrwt>0</asrwt>
<pdfrwt beam="1">  1        4 0.26530867E-01 0.30723296E+03</pdfrwt>
<pdfrwt beam="2">  1       -4 0.55590962E-01 0.30723296E+03</pdfrwt>
<totfact> 0.78041951E+01</totfact>
</mgrwt>
</event>
<event>
 6      1 +2.6141198e-09 6.38788700e+02 7.81860800e-03 9.82804700e-02
       -4 -1    0    0    0  501 -0.0000000000e+00 +0.0000000000e+00 +3.9879772476e+02 3.9879974696e+02 1.2700000000e+00 0.0000e+00 -1.0000e+00
        4 -1    0    0  501    0 +0.0000000000e+00 -0.0000000000e+00 -2.5579646589e+02 2.5579961858e+02 1.2700000000e+00 0.0000e+00 -1.0000e+00
      -13  1    1    2    0    0 -1.4607790287e+00 -3.3716891327e+01 -5.0249142091e-01 3.3752426546e+01 1.0566000000e-01 0.0000e+00 -1.0000e+00
       13  1    1    2    0    0 +8.3245781127e+01 +1.1397152153e+00 +2.9949107211e+01 8.8476659142e+01 1.0566000000e-01 0.0000e+00 1.0000e+00
    10002  1    1    2    0    0 -1.0678897516e+02 -1.6368581891e+02 +1.9752114492e+02 2.9531599215e+02 1.0000000000e+02 0.0000e+00 0.0000e+00
   -10002  1    1    2    0    0 +2.5003973064e+01 +1.9626299502e+02 -8.3966501844e+01 2.3705428770e+02 1.0000000000e+02 0.0000e+00 0.0000e+00
<mgrwt>
<rscale>  0 0.63878867E+03</rscale>
<asrwt>0</asrwt>
<pdfrwt beam="1">  1        4 0.63949764E-01 0.63878867E+03</pdfrwt>
<pdfrwt beam="2">  1       -4 0.99700078E-01 0.63878867E+03</pdfrwt>
<totfact> 0.37256896E+00</totfact>
</mgrwt>
</event>
<event>
 6      1 +2.6141198e-09 3.52355900e+02 7.81860800e-03 1.06165200e-01
        4 -1    0    0  501    0 +0.0000000000e+00 +0.0000000000e+00 +5.0991851587e+02 5.0992009739e+02 1.2700000000e+00 0.0000e+00 1.0000e+00
       -4 -1    0    0    0  501 -0.0000000000e+00 -0.0000000000e+00 -6.0861573230e+01 6.0874822349e+01 1.2700000000e+00 0.0000e+00 1.0000e+00
      -13  1    1    2    0    0 +2.1683690947e+01 +4.1951477961e+01 +1.4520826117e+01 4.9406219359e+01 1.0566000000e-01 0.0000e+00 -1.0000e+00
       13  1    1    2    0    0 -5.8617480560e+01 -1.3733196612e+01 +5.7820542351e+01 8.3473564666e+01 1.0566000000e-01 0.0000e+00 1.0000e+00
    10002  1    1    2    0    0 -4.3720453384e+00 -4.8111920215e+00 +1.0820396236e+02 1.4748003193e+02 1.0000000000e+02 0.0000e+00 0.0000e+00
   -10002  1    1    2    0    0 +4.1305834951e+01 -2.3407089328e+01 +2.6851161181e+02 2.9043510378e+02 1.0000000000e+02 0.0000e+00 0.0000e+00
<mgrwt>
<rscale>  0 0.35235593E+03</rscale>
<asrwt>0</asrwt>
<pdfrwt beam="1">  1        4 0.12748148E+00 0.35235593E+03</pdfrwt>
<pdfrwt beam="2">  1       -4 0.15217248E-01 0.35235593E+03</pdfrwt>
<totfact> 0.32897148E+01</totfact>
</mgrwt>
</event>
<event>
 6      1 +2.6141198e-09 5.07460500e+02 7.81860800e-03 1.01185000e-01
       -4 -1    0    0    0  501 -0.0000000000e+00 +0.0000000000e+00 +6.0300968907e+01 6.0314341173e+01 1.2700000000e+00 0.0000e+00 1.0000e+00
        4 -1    0    0  501    0 +0.0000000000e+00 -0.0000000000e+00 -1.0674965149e+03 1.0674972704e+03 1.2700000000e+00 0.0000e+00 1.0000e+00
      -13  1    1    2    0    0 -1.6589585527e+01 -4.9888653792e+00 -9.7773667000e+00 1.9892490778e+01 1.0566000000e-01 0.0000e+00 -1.0000e+00
       13  1    1    2    0    0 +5.2866253574e+01 +4.3224914147e+01 -3.7559824395e+02 3.8175553171e+02 1.0566000000e-01 0.0000e+00 1.0000e+00
    10002  1    1    2    0    0 +5.9623227449e+01 -1.1094073550e+02 -1.2039457568e+02 2.0089208521e+02 1.0000000000e+02 0.0000e+00 0.0000e+00
   -10002  1    1    2    0    0 -9.5899895496e+01 +7.2704686735e+01 -5.0142535967e+02 5.2527150384e+02 1.0000000000e+02 0.0000e+00 0.0000e+00
<mgrwt>
<rscale>  0 0.50746050E+03</rscale>
<asrwt>0</asrwt>
<pdfrwt beam="1">  1        4 0.26687583E+00 0.50746050E+03</pdfrwt>
<pdfrwt beam="2">  1       -4 0.15077012E-01 0.50746050E+03</pdfrwt>
<totfact> 0.38957545E+00</totfact>
</mgrwt>
</event>
<event>
 6      1 +2.6141198e-09 5.85837800e+02 7.81860800e-03 9.93523200e-02
        4 -1    0    0  501    0 +0.0000000000e+00 +0.0000000000e+00 +2.9224432054e+02 2.9224708003e+02 1.2700000000e+00 0.0000e+00 1.0000e+00
       -4 -1    0    0    0  501 -0.0000000000e+00 -0.0000000000e+00 -2.9358950624e+02 2.9359225309e+02 1.2700000000e+00 0.0000e+00 1.0000e+00
      -13  1    1    2    0    0 +8.8643136334e+00 -1.2005396464e+01 -1.0369737178e+01 1.8172732695e+01 1.0566000000e-01 0.0000e+00 1.0000e+00
       13  1    1    2    0    0 -8.0170176794e+01 +4.8435482054e+01 +1.0928518007e+02 1.4393232756e+02 1.0566000000e-01 0.0000e+00 -1.0000e+00
    10002  1    1    2    0    0 +2.3995236019e+01 +1.4510672860e+02 -1.1308299587e+02 2.1075933667e+02 1.0000000000e+02 0.0000e+00 0.0000e+00
   -10002  1    1    2    0    0 +4.7310627141e+01 -1.8153681419e+02 +1.2822367275e+01 2.1297493620e+02 1.0000000000e+02 0.0000e+00 0.0000e+00
<mgrwt>
<rscale>  0 0.58583779E+03</rscale>
<asrwt>0</asrwt>
<pdfrwt beam="1">  1        4 0.73061768E-01 0.58583779E+03</pdfrwt>
<pdfrwt beam="2">  1       -4 0.73398065E-01 0.58583779E+03</pdfrwt>
<totfact> 0.56142660E+00</totfact>
</mgrwt>
</event>
<event>
 6      1 +2.6141198e-09 6.44311600e+02 7.81860800e-03 9.81751200e-02
       -4 -1    0    0    0  501 -0.0000000000e+00 +0.0000000000e+00 +4.1076945801e+02 4.1077142127e+02 1.2700000000e+00 0.0000e+00 -1.0000e+00
        4 -1    0    0  501    0 +0.0000000000e+00 -0.0000000000e+00 -2.5265425333e+02 2.5265744522e+02 1.2700000000e+00 0.0000e+00 -1.0000e+00
      -13  1    1    2    0    0 -1.0233052411e+01 +3.9012483196e+01 +4.2767285000e+01 5.8785551261e+01 1.0566000000e-01 0.0000e+00 1.0000e+00
       13  1    1    2    0    0 +5.9239574430e+01 +1.0100854616e+01 -7.0559286217e+00 6.0507451899e+01 1.0566000000e-01 0.0000e+00 -1.0000e+00
    10002  1    1    2    0    0 +1.3168777263e+02 -1.9294908272e+02 +1.4306969143e+02 2.9161610825e+02 1.0000000000e+02 0.0000e+00 0.0000e+00
   -10002  1    1    2    0    0 -1.8069429465e+02 +1.4383574491e+02 -2.0665843125e+01 2.5251975508e+02 1.0000000000e+02 0.0000e+00 0.0000e+00
<mgrwt>
<rscale>  0 0.64431160E+03</rscale>
<asrwt>0</asrwt>
<pdfrwt beam="1">  1        4 0.63164208E-01 0.64431160E+03</pdfrwt>
<pdfrwt beam="2">  1       -4 0.10269301E+00 0.64431160E+03</pdfrwt>
<totfact> 0.35658138E+00</totfact>
</mgrwt>
</event>
<event>
 6      1 +2.6141198e-09 4.09543800e+02 7.81860800e-03 1.04052400e-01
       -4 -1    0    0    0  501 -0.0000000000e+00 +0.0000000000e+00 +4.2265632338e+02 4.2265823143e+02 1.2700000000e+00 0.0000e+00 -1.0000e+00
        4 -1    0    0  501    0 +0.0000000000e+00 -0.0000000000e+00 -9.9203341125e+01 9.9211470054e+01 1.2700000000e+00 0.0000e+00 -1.0000e+00
      -13  1    1    2    0    0 -4.8544726635e+01 +4.8195209118e+00 +7.0991570476e+01 8.6137288724e+01 1.0566000000e-01 0.0000e+00 1.0000e+00
       13  1    1    2    0    0 +1.1960884305e+01 -5.1323392353e+01 +3.2391405419e+00 5.2798262769e+01 1.0566000000e-01 0.0000e+00 -1.0000e+00
    10002  1    1    2    0    0 -2.1422691382e+01 -6.7541987278e+01 +1.4551909961e+02 1.9025419864e+02 1.0000000000e+02 0.0000e+00 0.0000e+00
   -10002  1    1    2    0    0 +5.8006533711e+01 +1.1404585872e+02 +1.0370317163e+02 1.9267995135e+02 1.0000000000e+02 0.0000e+00 0.0000e+00
<mgrwt>
<rscale>  0 0.40954384E+03</rscale>
<asrwt>0</asrwt>
<pdfrwt beam="1">  1        4 0.24802090E-01 0.40954384E+03</pdfrwt>
<pdfrwt beam="2">  1       -4 0.10566533E+00 0.40954384E+03</pdfrwt>
<totfact> 0.21540755E+01</totfact>
</mgrwt>
</event>
<event>
 6      1 +2.6141198e-09 4.05469700e+02 7.81860800e-03 1.04190200e-01
        4 -1    0    0  501    0 +0.0000000000e+00 +0.0000000000e+00 +4.5420299800e+01 4.5438051608e+01 1.2700000000e+00 0.0000e+00 -1.0000e+00
       -4 -1    0    0    0  501 -0.0000000000e+00 -0.0000000000e+00 -9.0471790069e+02 9.0471879208e+02 1.2700000000e+00 0.0000e+00 -1.0000e+00
      -13  1    1    2    0    0 -3.7742937003e+01 -6.4735320608e+00 -1.9285292999e+02 1.9661815705e+02 1.0566000000e-01 0.0000e+00 -1.0000e+00
       13  1    1    2    0    0 -5.9674827858e+01 -2.1234739963e+01 -3.3180119703e+01 7.1504760462e+01 1.0566000000e-01 0.0000e+00 1.0000e+00
    10002  1    1    2    0    0 +6.4307263189e+01 -3.6892788685e+01 -2.4890036368e+02 2.7829461546e+02 1.0000000000e+02 0.0000e+00 0.0000e+00
   -10002  1    1    2    0    0 +3.3110501672e+01 +6.4601060709e+01 -3.8436418752e+02 4.0373931071e+02 1.0000000000e+02 0.0000e+00 0.0000e+00
<mgrwt>
<rscale>  0 0.40546968E+03</rscale>
<asrwt>0</asrwt>
<pdfrwt beam="1">  1        4 0.11357408E-01 0.40546968E+03</pdfrwt>
<pdfrwt beam="2">  1       -4 0.22618175E+00 0.40546968E+03</pdfrwt>
<totfact> 0.11280607E+01</totfact>
</mgrwt>
</event>
<event>
 6      1 +2.6141198e-09 4.68290600e+02 7.81860800e-03 1.02240400e-01
        4 -1    0    0  501    0 +0.0000000000e+00 +0.0000000000e+00 +1.9533441166e+02 1.9533854018e+02 1.2700000000e+00 0.0000e+00 -1.0000e+00
       -4 -1    0    0    0  501 -0.0000000000e+00 -0.0000000000e+00 -2.8065891203e+02 2.8066178543e+02 1.2700000000e+00 0.0000e+00 -1.0000e+00
      -13  1    1    2    0    0 -4.7668896252e+01 +2.5431752245e+01 +2.6868209784e+01 6.0340778526e+01 1.0566000000e-01 0.0000e+00 1.0000e+00
       13  1    1    2    0    0 +4.8431677014e+01 -1.2270280724e+01 +3.3575562748e+01 6.0195653542e+01 1.0566000000e-01 0.0000e+00 -1.0000e+00
    10002  1    1    2    0    0 -9.0271699267e+01 -2.5103363607e+01 +2.3583048929e+01 1.3905149675e+02 1.0000000000e+02 0.0000e+00 0.0000e+00
   -10002  1    1    2    0    0 +8.9508918505e+01 +1.1941892086e+01 -1.6935132183e+02 2.1641239679e+02 1.0000000000e+02 0.0000e+00 0.0000e+00
<mgrwt>
<rscale>  0 0.46829055E+03</rscale>
<asrwt>0</asrwt>
<pdfrwt beam="1">  1        4 0.48834478E-01 0.46829055E+03</pdfrwt>
<pdfrwt beam="2">  1       -4 0.70165603E-01 0.46829055E+03</pdfrwt>
<totfact> 0.14623672E+01</totfact>
</mgrwt>
</event>
<event>
 6      1 +2.6141198e-09 3.88032000e+02 7.81860800e-03 1.04800400e-01
        4 -1    0    0  501    0 +0.0000000000e+00 +0.0000000000e+00 +1.0159346850e+02 1.0160140620e+02 1.2700000000e+00 0.0000e+00 1.0000e+00
       -4 -1    0    0    0  501 -0.0000000000e+00 -0.0000000000e+00 -3.7049454022e+02 3.7049671690e+02 1.2700000000e+00 0.0000e+00 1.0000e+00
      -13  1    1    2    0    0 +4.4835870044e+01 -7.6491777942e+01 -6.2306426516e+01 1.0836673514e+02 1.0566000000e-01 0.0000e+00 1.0000e+00
       13  1    1    2    0    0 +1.0610589561e+01 -2.0784793815e+01 -8.1947223589e+01 8.5205345388e+01 1.0566000000e-01 0.0000e+00 -1.0000e+00
    10002  1    1    2    0    0 -5.0624517600e+01 +5.0476236880e+00 -6.7156802568e+01 1.3076068376e+02 1.0000000000e+02 0.0000e+00 0.0000e+00
   -10002  1    1    2    0    0 -4.8219420047e+00 +9.2228948069e+01 -5.7490619045e+01 1.4776535881e+02 1.0000000000e+02 0.0000e+00 0.0000e+00
<mgrwt>
<rscale>  0 0.38803202E+03</rscale>
<asrwt>0</asrwt>
<pdfrwt beam="1">  1        4 0.25399632E-01 0.38803202E+03</pdfrwt>
<pdfrwt beam="2">  1       -4 0.92624896E-01 0.38803202E+03</pdfrwt>
<totfact> 0.28002940E+01</totfact>
</mgrwt>
</event>
<event>
 6      1 +2.6141198e-09 7.42843900e+02 7.81860800e-03 9.64664400e-02
       -4 -1    0    0    0  501 -0.0000000000e+00 +0.0000000000e+00 +4.0432186708e+02 4.0432386165e+02 1.2700000000e+00 0.0000e+00 1.0000e+00
        4 -1    0    0  501    0 +0.0000000000e+00 -0.0000000000e+00 -3.4119512285e+02 3.4119748645e+02 1.2700000000e+00 0.0000e+00 1.0000e+00
      -13  1    1    2    0    0 -4.5013549631e+01 +7.9452396192e+01 -5.4725671842e+01 1.0646038340e+02 1.0566000000e-01 0.0000e+00 -1.0000e+00
       13  1    1    2    0    0 +5.8979546389e+01 +8.4652201460e+01 -5.2427877260e+01 1.1572932032e+02 1.0566000000e-01 0.0000e+00 1.0000e+00
    10002  1    1    2    0    0 +5.8964114283e+01 -2.9299623145e+02 +1.2457586097e+02 3.3888449884e+02 1.0000000000e+02 0.0000e+00 0.0000e+00
   -10002  1    1    2    0    0 -7.2930111041e+01 +1.2889163380e+02 +4.5704432362e+01 1.8444714554e+02 1.0000000000e+02 0.0000e+00 0.0000e+00
<mgrwt>
<rscale>  0 0.74284392E+03</rscale>
<asrwt>0</asrwt>
<pdfrwt beam="1">  1        4 0.85299326E-01 0.74284392E+03</pdfrwt>
<pdfrwt beam="2">  1       -4 0.10108101E+00 0.74284392E+03</pdfrwt>
<totfact> 0.18911890E+00</totfact>
</mgrwt>
</event>
<event>
 6      1 +2.6141198e-09 4.59621700e+02 7.81860800e-03 1.02489100e-01
       -4 -1    0    0    0  501 -0.0000000000e+00 +0.0000000000e+00 +2.4532474486e+02 2.4532803212e+02 1.2700000000e+00 0.0000e+00 -1.0000e+00
        4 -1    0    0  501    0 +0.0000000000e+00 -0.0000000000e+00 -2.1527145175e+02 2.1527519792e+02 1.2700000000e+00 0.0000e+00 -1.0000e+00
      -13  1    1    2    0    0 +1.9827656520e+01 +1.7971345631e+01 -1.6723143082e+01 3.1555980502e+01 1.0566000000e-01 0.0000e+00 1.0000e+00
       13  1    1    2    0    0 -2.1550125152e+00 -9.1836450866e+01 +3.1117846744e+01 9.6989222786e+01 1.0566000000e-01 0.0000e+00 -1.0000e+00
    10002  1    1    2    0    0 +9.4364506918e+01 +1.0096817450e+02 -2.9054941610e+01 1.7304167724e+02 1.0000000000e+02 0.0000e+00 0.0000e+00
   -10002  1    1    2    0    0 -1.1203715092e+02 -2.7103069268e+01 +4.4713531063e+01 1.5901634951e+02 1.0000000000e+02 0.0000e+00 0.0000e+00
<mgrwt>
<rscale>  0 0.45962173E+03</rscale>
<asrwt>0</asrwt>
<pdfrwt beam="1">  1        4 0.53818742E-01 0.45962173E+03</pdfrwt>
<pdfrwt beam="2">  1       -4 0.61332065E-01 0.45962173E+03</pdfrwt>
<totfact> 0.15990173E+01</totfact>
</mgrwt>
</event>
<event>
 6      1 +2.6141198e-09 4.94040400e+02 7.81860800e-03 1.01534600e-01
       -4 -1    0    0    0  501 -0.0000000000e+00 +0.0000000000e+00 +1.9386853688e+02 1.9387269661e+02 1.2700000000e+00 0.0000e+00 -1.0000e+00
        4 -1    0    0  501    0 +0.0000000000e+00 -0.0000000000e+00 -3.1473532159e+02 3.1473788389e+02 1.2700000000e+00 0.0000e+00 -1.0000e+00
      -13  1    1    2    0    0 +7.7417671594e+00 -3.2225492214e+01 +9.8731735756e+00 3.4581903182e+01 1.0566000000e-01 0.0000e+00 1.0000e+00
       13  1    1    2    0    0 +2.9279205107e+01 +8.2953536580e+01 -1.7606985200e+01 8.9713868353e+01 1.0566000000e-01 0.0000e+00 -1.0000e+00
    10002  1    1    2    0    0 +3.4586843896e+01 -1.1167636123e+01 -2.0144394816e+02 2.2781709795e+02 1.0000000000e+02 0.0000e+00 0.0000e+00
   -10002  1    1    2    0    0 -7.1607816163e+01 -3.9560408243e+01 +8.8310975074e+01 1.5649771102e+02 1.0000000000e+02 0.0000e+00 0.0000e+00
<mgrwt>
<rscale>  0 0.49404043E+03</rscale>
<asrwt>0</asrwt>
<pdfrwt beam="1">  1        4 0.78684670E-01 0.49404043E+03</pdfrwt>
<pdfrwt beam="2">  1       -4 0.48467975E-01 0.49404043E+03</pdfrwt>
<totfact> 0.11532168E+01</totfact>
</mgrwt>
</event>
<event>
 6      1 +2.6141198e-09 5.37475600e+02 7.81860800e-03 1.00443500e-01
       -4 -1    0    0    0  501 -0.0000000000e+00 +0.0000000000e+00 +5.6802848879e+02 5.6802990852e+02 1.2700000000e+00 0.0000e+00 1.0000e+00
        4 -1    0    0  501    0 +0.0000000000e+00 -0.0000000000e+00 -1.2713677330e+02 1.2714311631e+02 1.2700000000e+00 0.0000e+00 1.0000e+00
      -13  1    1    2    0    0 -7.1810710755e+01 +5.6900621910e+00 -1.0297231645e+00 7.2043226473e+01 1.0566000000e-01 0.0000e+00 -1.0000e+00
       13  1    1    2    0    0 +5.0101884750e+01 +5.4709856939e+01 +1.0867866908e+02 1.3158431358e+02 1.0566000000e-01 0.0000e+00 1.0000e+00
    10002  1    1    2    0    0 +2.1746616852e+00 -8.3138093369e+01 -1.2235651790e+01 1.3063836687e+02 1.0000000000e+02 0.0000e+00 0.0000e+00
   -10002  1    1    2    0    0 +1.9534164319e+01 +2.2738174239e+01 +3.4547842136e+02 3.6090711792e+02 1.0000000000e+02 0.0000e+00 0.0000e+00
<mgrwt>
<rscale>  0 0.53747561E+03</rscale>
<asrwt>0</asrwt>
<pdfrwt beam="1">  1        4 0.31785164E-01 0.53747561E+03</pdfrwt>
<pdfrwt beam="2">  1       -4 0.14200809E+00 0.53747561E+03</pdfrwt>
<totfact> 0.65006637E+00</totfact>
</mgrwt>
</event>
<event>
 6      1 +2.6141198e-09 9.83903700e+02 7.81860800e-03 9.32637700e-02
        4 -1    0    0  501    0 +0.0000000000e+00 +0.0000000000e+00 +3.9525801094e+02 3.9526005124e+02 1.2700000000e+00 0.0000e+00 1.0000e+00
       -4 -1    0    0    0  501 -0.0000000000e+00 -0.0000000000e+00 -6.1229602327e+02 6.1229734036e+02 1.2700000000e+00 0.0000e+00 1.0000e+00
      -13  1    1    2    0    0 -5.7095867638e+00 -2.1268276525e+01 -9.2402225725e+00 2.3881621482e+01 1.0566000000e-01 0.0000e+00 1.0000e+00
       13  1    1    2    0    0 +2.2756771982e+01 +9.8211100357e+01 -1.7628280048e+01 1.0234284697e+02 1.0566000000e-01 0.0000e+00 -1.0000e+00
    10002  1    1    2    0    0 +5.8364160822e+01 -1.5967821919e+02 -4.9975850402e+02 5.3727280900e+02 1.0000000000e+02 0.0000e+00 0.0000e+00
   -10002  1    1    2    0    0 -7.5411346040e+01 +8.2735395358e+01 +3.0958899430e+02 3.4406011415e+02 1.0000000000e+02 0.0000e+00 0.0000e+00
<mgrwt>
<rscale>  0 0.98390365E+03</rscale>
<asrwt>0</asrwt>
<pdfrwt beam="1">  1        4 0.98814923E-01 0.98390365E+03</pdfrwt>
<pdfrwt beam="2">  1       -4 0.15307442E+00 0.98390365E+03</pdfrwt>
<totfact> 0.46560679E-01</totfact>
</mgrwt>
</event>
<event>
 6      1 +2.6141198e-09 5.46865100e+02 7.81860800e-03 1.00222200e-01
       -4 -1    0    0    0  501 -0.0000000000e+00 +0.0000000000e+00 +2.6976706533e+02 2.6977005474e+02 1.2700000000e+00 0.0000e+00 1.0000e+00
        4 -1    0    0  501    0 +0.0000000000e+00 -0.0000000000e+00 -2.7714190023e+02 2.7714481009e+02 1.2700000000e+00 0.0000e+00 1.0000e+00
      -13  1    1    2    0    0 +7.5109311054e+00 -9.1479830736e+01 +1.5364571600e+01 9.3064787874e+01 1.0566000000e-01 0.0000e+00 1.0000e+00
       13  1    1    2    0    0 -5.7145317038e+01 +1.7438086664e+01 -5.0923296906e+01 7.8503932753e+01 1.0566000000e-01 0.0000e+00 -1.0000e+00
    10002  1    1    2    0    0 -1.1618144442e+02 +7.5218801186e+01 +5.6042245714e+01 1.7971290823e+02 1.0000000000e+02 0.0000e+00 0.0000e+00
   -10002  1    1    2    0    0 +1.6581583035e+02 -1.1770571142e+00 -2.7858355305e+01 1.9563323598e+02 1.0000000000e+02 0.0000e+00 0.0000e+00
<mgrwt>
<rscale>  0 0.54686514E+03</rscale>
<asrwt>0</asrwt>
<pdfrwt beam="1">  1        4 0.69286213E-01 0.54686514E+03</pdfrwt>
<pdfrwt beam="2">  1       -4 0.67442504E-01 0.54686514E+03</pdfrwt>
<totfact> 0.76020707E+00</totfact>
</mgrwt>
</event>
<event>
 6      1 +2.6141198e-09 4.01279900e+02 7.81860800e-03 1.04333700e-01
       -4 -1    0    0    0  501 -0.0000000000e+00 +0.0000000000e+00 +2.0558828884e+02 2.0559221145e+02 1.2700000000e+00 0.0000e+00 -1.0000e+00
        4 -1    0    0  501    0 +0.0000000000e+00 -0.0000000000e+00 -1.9580285877e+02 1.9580697741e+02 1.2700000000e+00 0.0000e+00 -1.0000e+00
      -13  1    1    2    0    0 +1.0235430109e+01 +8.1456847670e+00 -6.1413423280e+01 6.2791209041e+01 1.0566000000e-01 0.0000e+00 -1.0000e+00
       13  1    1    2    0    0 +7.6781537865e-01 -2.1848122945e+01 +3.4751135984e+01 4.1055847731e+01 1.0566000000e-01 0.0000e+00 1.0000e+00
    10002  1    1    2    0    0 -1.0668565285e+02 +4.1199397402e+01 +4.2288145090e-01 1.5191904983e+02 1.0000000000e+02 0.0000e+00 0.0000e+00
   -10002  1    1    2    0    0 +9.5682407367e+01 -2.7496959223e+01 +3.6024835914e+01 1.4563308226e+02 1.0000000000e+02 0.0000e+00 0.0000e+00
<mgrwt>
<rscale>  0 0.40127990E+03</rscale>
<asrwt>0</asrwt>
<pdfrwt beam="1">  1        4 0.48951720E-01 0.40127990E+03</pdfrwt>
<pdfrwt beam="2">  1       -4 0.51398077E-01 0.40127990E+03</pdfrwt>
<totfact> 0.28105307E+01</totfact>
</mgrwt>
</event>
<event>
 6      1 +2.6141198e-09 4.31225400e+02 7.81860800e-03 1.03347400e-01
       -4 -1    0    0    0  501 -0.0000000000e+00 +0.0000000000e+00 +5.3871834777e+02 5.3871984475e+02 1.2700000000e+00 0.0000e+00 1.0000e+00
        4 -1    0    0  501    0 +0.0000000000e+00 -0.0000000000e+00 -8.6288962353e+01 8.6298307770e+01 1.2700000000e+00 0.0000e+00 1.0000e+00
      -13  1    1    2    0    0 +4.2760641740e+00 +2.5119315267e+01 +8.4741431901e+01 8.8489469255e+01 1.0566000000e-01 0.0000e+00 1.0000e+00
       13  1    1    2    0    0 +2.3287500285e+01 +1.5362965593e+01 -1.7490574965e+01 3.2928099823e+01 1.0566000000e-01 0.0000e+00 -1.0000e+00
    10002  1    1    2    0    0 -1.3776004969e+02 -3.1029684572e+01 +2.3644094998e+02 2.9299316620e+02 1.0000000000e+02 0.0000e+00 0.0000e+00
   -10002  1    1    2    0    0 +1.1019648524e+02 -9.4525962887e+00 +1.4873757850e+02 2.1060741724e+02 1.0000000000e+02 0.0000e+00 0.0000e+00
<mgrwt>
<rscale>  0 0.43122540E+03</rscale>
<asrwt>0</asrwt>
<pdfrwt beam="1">  1        4 0.21573596E-01 0.43122540E+03</pdfrwt>
<pdfrwt beam="2">  1       -4 0.13468094E+00 0.43122540E+03</pdfrwt>
<totfact> 0.15411026E+01</totfact>
</mgrwt>
</event>
<event>
 6      1 +2.6141198e-09 4.60288700e+02 7.81860800e-03 1.02469800e-01
        4 -1    0    0  501    0 +0.0000000000e+00 +0.0000000000e+00 +3.2937136136e+02 3.2937380981e+02 1.2700000000e+00 0.0000e+00 1.0000e+00
       -4 -1    0    0    0  501 -0.0000000000e+00 -0.0000000000e+00 -1.6080511524e+02 1.6081013024e+02 1.2700000000e+00 0.0000e+00 1.0000e+00
      -13  1    1    2    0    0 -1.2444018229e+01 +5.8315082752e+00 -2.7300407760e+01 3.0564415687e+01 1.0566000000e-01 0.0000e+00 1.0000e+00
       13  1    1    2    0    0 -4.5513896846e+01 -1.9826430402e+01 +6.4840927144e+01 8.1663695395e+01 1.0566000000e-01 0.0000e+00 -1.0000e+00
    10002  1    1    2    0    0 -9.9758285986e+01 -5.7627901330e+01 +7.6423677878e+01 1.7062610930e+02 1.0000000000e+02 0.0000e+00 0.0000e+00
   -10002  1    1    2    0    0 +1.5771620106e+02 +7.1622823457e+01 +5.4602048859e+01 2.0732971967e+02 1.0000000000e+02 0.0000e+00 0.0000e+00
<mgrwt>
<rscale>  0 0.46028873E+03</rscale>
<asrwt>0</asrwt>
<pdfrwt beam="1">  1        4 0.82343773E-01 0.46028873E+03</pdfrwt>
<pdfrwt beam="2">  1       -4 0.40202212E-01 0.46028873E+03</pdfrwt>
<totfact> 0.15183313E+01</totfact>
</mgrwt>
</event>
<event>
 6      1 +2.6141198e-09 4.11114600e+02 7.81860800e-03 1.03999800e-01
       -4 -1    0    0    0  501 -0.0000000000e+00 +0.0000000000e+00 +5.6791641827e+02 5.6791783829e+02 1.2700000000e+00 0.0000e+00 1.0000e+00
        4 -1    0    0  501    0 +0.0000000000e+00 -0.0000000000e+00 -7.4394498715e+01 7.4405338108e+01 1.2700000000e+00 0.0000e+00 1.0000e+00
      -13  1    1    2    0    0 -2.6328669268e+01 -2.2156209200e+01 +7.9997603607e+01 8.7084580601e+01 1.0566000000e-01 0.0000e+00 1.0000e+00
       13  1    1    2    0    0 +5.0255900732e+01 +2.5315507061e+01 +1.5957093987e+02 1.6920232407e+02 1.0566000000e-01 0.0000e+00 -1.0000e+00
    10002  1    1    2    0    0 -8.6112680865e+01 -5.6061437640e+01 +2.0007915612e+02 2.4615025353e+02 1.0000000000e+02 0.0000e+00 0.0000e+00
   -10002  1    1    2    0    0 +6.2185449401e+01 +5.2902139778e+01 +5.3874219954e+01 1.3988601819e+02 1.0000000000e+02 0.0000e+00 0.0000e+00
<mgrwt>
<rscale>  0 0.41111456E+03</rscale>
<asrwt>0</asrwt>
<pdfrwt beam="1">  1        4 0.18600157E-01 0.41111456E+03</pdfrwt>
<pdfrwt beam="2">  1       -4 0.14198064E+00 0.41111456E+03</pdfrwt>
<totfact> 0.17626737E+01</totfact>
</mgrwt>
</event>
<event>
 6      1 +2.6141198e-09 5.49247600e+02 7.81860800e-03 1.00166800e-01
        4 -1    0    0  501    0 +0.0000000000e+00 +0.0000000000e+00 +1.4493404232e+02 1.4493960646e+02 1.2700000000e+00 0.0000e+00 -1.0000e+00
       -4 -1    0    0    0  501 -0.0000000000e+00 -0.0000000000e+00 -5.2034615906e+02 5.2034770889e+02 1.2700000000e+00 0.0000e+00 -1.0000e+00
      -13  1    1    2    0    0 +2.6444942574e+01 +5.6590725629e+01 +2.1720819521e+01 6.6133579819e+01 1.0566000000e-01 0.0000e+00 -1.0000e+00
       13  1    1    2    0    0 -3.5104182346e+01 -2.1490451172e+01 +2.1637229106e+00 4.1216937910e+01 1.0566000000e-01 0.0000e+00 1.0000e+00
    10002  1    1    2    0    0 +4.2479552432e+01 -3.7052343282e+01 -4.3232774328e+02 4.4730824509e+02 1.0000000000e+02 0.0000e+00 0.0000e+00
   -10002  1    1    2    0    0 -3.3820312659e+01 +1.9520688248e+00 +3.3031084095e+01 1.1062855254e+02 1.0000000000e+02 0.0000e+00 0.0000e+00
<mgrwt>
<rscale>  0 0.54924763E+03</rscale>
<asrwt>0</asrwt>
<pdfrwt beam="1">  1        4 0.36234401E-01 0.54924763E+03</pdfrwt>
<pdfrwt beam="2">  1       -4 0.13008742E+00 0.54924763E+03</pdfrwt>
<totfact> 0.62933746E+00</totfact>
</mgrwt>
</event>
<event>
 6      1 +2.6141198e-09 4.09185200e+02 7.81860800e-03 1.04064500e-01
       -4 -1    0    0    0  501 -0.0000000000e+00 +0.0000000000e+00 +5.6480739314e+02 5.6480882097e+02 1.2700000000e+00 0.0000e+00 -1.0000e+00
        4 -1    0    0  501    0 +0.0000000000e+00 -0.0000000000e+00 -7.4103473620e+01 7.4114355576e+01 1.2700000000e+00 0.0000e+00 -1.0000e+00
      -13  1    1    2    0    0 -3.7484321308e+01 +2.6390013308e+01 +1.6067791972e+01 4.8576663628e+01 1.0566000000e-01 0.0000e+00 -1.0000e+00
       13  1    1    2    0    0 +4.7790727716e+01 -3.6981891425e+01 +7.2107194418e+01 9.4080139242e+01 1.0566000000e-01 0.0000e+00 1.0000e+00
    10002  1    1    2    0    0 +8.9669031427e+00 +1.0121373918e+02 +1.3666127657e+02 1.9748653338e+02 1.0000000000e+02 0.0000e+00 0.0000e+00
   -10002  1    1    2    0    0 -1.9273309551e+01 -9.0621861067e+01 +2.6586765656e+02 2.9877984030e+02 1.0000000000e+02 0.0000e+00 0.0000e+00
<mgrwt>
<rscale>  0 0.40918515E+03</rscale>
<asrwt>0</asrwt>
<pdfrwt beam="1">  1        4 0.18527407E-01 0.40918515E+03</pdfrwt>
<pdfrwt beam="2">  1       -4 0.14120338E+00 0.40918515E+03</pdfrwt>
<totfact> 0.18001784E+01</totfact>
</mgrwt>
</event>
<event>
 6      1 +2.6141198e-09 3.44926500e+02 7.81860800e-03 1.06471700e-01
        4 -1    0    0  501    0 +0.0000000000e+00 +0.0000000000e+00 +3.3469846703e+02 3.3470087650e+02 1.2700000000e+00 0.0000e+00 -1.0000e+00
       -4 -1    0    0    0  501 -0.0000000000e+00 -0.0000000000e+00 -8.8859527544e+01 8.8868602641e+01 1.2700000000e+00 0.0000e+00 -1.0000e+00
      -13  1    1    2    0    0 -3.4344685404e+01 +4.8775498523e+01 +5.6307590490e+01 8.2031473122e+01 1.0566000000e-01 0.0000e+00 1.0000e+00
       13  1    1    2    0    0 +3.9434091378e+01 -5.1112146621e+00 +8.2624514234e+01 9.1695112163e+01 1.0566000000e-01 0.0000e+00 -1.0000e+00
    10002  1    1    2    0    0 -2.6347929747e+01 -5.9986508926e+01 +7.6531142344e+01 1.4194932336e+02 1.0000000000e+02 0.0000e+00 0.0000e+00
   -10002  1    1    2    0    0 +2.1258523773e+01 +1.6322225065e+01 +3.0375692416e+01 1.0789357049e+02 1.0000000000e+02 0.0000e+00 0.0000e+00
<mgrwt>
<rscale>  0 0.34492654E+03</rscale>
<asrwt>0</asrwt>
<pdfrwt beam="1">  1        4 0.83676051E-01 0.34492654E+03</pdfrwt>
<pdfrwt beam="2">  1       -4 0.22216318E-01 0.34492654E+03</pdfrwt>
<totfact> 0.44990865E+01</totfact>
</mgrwt>
</event>
<event>
 6      1 +2.6141198e-09 6.31059700e+02 7.81860800e-03 9.84298300e-02
        4 -1    0    0  501    0 +0.0000000000e+00 +0.0000000000e+00 +3.7103714633e+02 3.7103931982e+02 1.2700000000e+00 0.0000e+00 -1.0000e+00
       -4 -1    0    0    0  501 -0.0000000000e+00 -0.0000000000e+00 -2.6832204063e+02 2.6832504614e+02 1.2700000000e+00 0.0000e+00 -1.0000e+00
      -13  1    1    2    0    0 -6.4918496284e+01 -5.7090271810e+01 -3.9757130718e+01 9.5154353039e+01 1.0566000000e-01 0.0000e+00 1.0000e+00
       13  1    1    2    0    0 +2.4543644634e+01 +2.4521047085e+01 -2.6193952352e+01 4.3471905249e+01 1.0566000000e-01 0.0000e+00 -1.0000e+00
    10002  1    1    2    0    0 -1.0525809160e+02 +1.8704141949e+02 +8.1998843791e+01 2.5057447762e+02 1.0000000000e+02 0.0000e+00 0.0000e+00
   -10002  1    1    2    0    0 +1.4563294325e+02 -1.5447219476e+02 +8.6667344976e+01 2.5016363005e+02 1.0000000000e+02 0.0000e+00 0.0000e+00
<mgrwt>
<rscale>  0 0.63105974E+03</rscale>
<asrwt>0</asrwt>
<pdfrwt beam="1">  1        4 0.92759933E-01 0.63105974E+03</pdfrwt>
<pdfrwt beam="2">  1       -4 0.67081158E-01 0.63105974E+03</pdfrwt>
<totfact> 0.39777481E+00</totfact>
</mgrwt>
</event>
<event>
 6      1 +2.6141198e-09 5.01247800e+02 7.81860800e-03 1.01345400e-01
       -4 -1    0    0    0  501 -0.0000000000e+00 +0.0000000000e+00 +5.3828431293e+01 5.3843411068e+01 1.2700000000e+00 0.0000e+00 1.0000e+00
        4 -1    0    0  501    0 +0.0000000000e+00 -0.0000000000e+00 -1.1667214151e+03 1.1667221063e+03 1.2700000000e+00 0.0000e+00 1.0000e+00
      -13  1    1    2    0    0 +5.9777101730e+00 -1.4492871518e+01 -2.2705798662e+01 2.7592404765e+01 1.0566000000e-01 0.0000e+00 -1.0000e+00
       13  1    1    2    0    0 -5.3676415315e+00 +1.7839619624e+01 -2.7263867313e+01 3.3021102780e+01 1.0566000000e-01 0.0000e+00 1.0000e+00
    10002  1    1    2    0    0 -6.5813756737e+01 +8.0806850240e+01 -9.8280581624e+02 9.9336220487e+02 1.0000000000e+02 0.0000e+00 0.0000e+00
   -10002  1    1    2    0    0 +6.5203688096e+01 -8.4153598346e+01 -8.0117501581e+01 1.6658980496e+02 1.0000000000e+02 0.0000e+00 0.0000e+00
<mgrwt>
<rscale>  0 0.50124783E+03</rscale>
<asrwt>0</asrwt>
<pdfrwt beam="1">  1        4 0.29168223E+00 0.50124783E+03</pdfrwt>
<pdfrwt beam="2">  1       -4 0.13459071E-01 0.50124783E+03</pdfrwt>
<totfact> 0.33791197E+00</totfact>
</mgrwt>
</event>
<event>
 6      1 +2.6141198e-09 5.01727400e+02 7.81860800e-03 1.01332900e-01
        4 -1    0    0  501    0 +0.0000000000e+00 +0.0000000000e+00 +2.1940001478e+02 2.1940369046e+02 1.2700000000e+00 0.0000e+00 -1.0000e+00
       -4 -1    0    0    0  501 -0.0000000000e+00 -0.0000000000e+00 -2.8683205073e+02 2.8683486229e+02 1.2700000000e+00 0.0000e+00 -1.0000e+00
      -13  1    1    2    0    0 -2.7154117924e+00 -1.5642929294e+01 +3.8427429631e+01 4.1578278105e+01 1.0566000000e-01 0.0000e+00 -1.0000e+00
       13  1    1    2    0    0 +7.5345821195e+01 +2.3704916054e+01 -5.2951855049e+01 9.5093774422e+01 1.0566000000e-01 0.0000e+00 1.0000e+00
    10002  1    1    2    0    0 -6.3095843803e+01 -1.4202523770e+02 -7.7371306292e+01 2.0034613220e+02 1.0000000000e+02 0.0000e+00 0.0000e+00
   -10002  1    1    2    0    0 -9.5345655991e+00 +1.3396325094e+02 +2.4463695767e+01 1.6922036802e+02 1.0000000000e+02 0.0000e+00 0.0000e+00
<mgrwt>
<rscale>  0 0.50172741E+03</rscale>
<asrwt>0</asrwt>
<pdfrwt beam="1">  1        4 0.54850815E-01 0.50172741E+03</pdfrwt>
<pdfrwt beam="2">  1       -4 0.71708823E-01 0.50172741E+03</pdfrwt>
<totfact> 0.10963320E+01</totfact>
</mgrwt>
</event>
<event>
 6      1 +2.6141198e-09 5.90329800e+02 7.81860800e-03 9.92567400e-02
        4 -1    0    0  501    0 +0.0000000000e+00 +0.0000000000e+00 +3.5736821853e+02 3.5737047516e+02 1.2700000000e+00 0.0000e+00 1.0000e+00
       -4 -1    0    0    0  501 -0.0000000000e+00 -0.0000000000e+00 -2.4378394938e+02 2.4378725741e+02 1.2700000000e+00 0.0000e+00 1.0000e+00
      -13  1    1    2    0    0 +1.6259631251e+01 +5.8501326567e+00 -5.7194356666e+01 5.9747847317e+01 1.0566000000e-01 0.0000e+00 -1.0000e+00
       13  1    1    2    0    0 +1.7096355689e+01 +5.2185231128e+01 +4.9956563197e+01 7.4237814463e+01 1.0566000000e-01 0.0000e+00 1.0000e+00
    10002  1    1    2    0    0 -1.1503411197e+00 +1.7127563033e+02 +4.0187915274e+01 2.0236534625e+02 1.0000000000e+02 0.0000e+00 0.0000e+00
   -10002  1    1    2    0    0 -3.2205645820e+01 -2.2931099411e+02 +8.0634147348e+01 2.6480672454e+02 1.0000000000e+02 0.0000e+00 0.0000e+00
<mgrwt>
<rscale>  0 0.59032977E+03</rscale>
<asrwt>0</asrwt>
<pdfrwt beam="1">  1        4 0.89342749E-01 0.59032977E+03</pdfrwt>
<pdfrwt beam="2">  1       -4 0.60946684E-01 0.59032977E+03</pdfrwt>
<totfact> 0.53439195E+00</totfact>
</mgrwt>
</event>
<event>
 6      1 +2.6141198e-09 3.60954600e+02 7.81860800e-03 1.05820700e-01
       -4 -1    0    0    0  501 -0.0000000000e+00 +0.0000000000e+00 +1.5275585311e+02 1.5276113236e+02 1.2700000000e+00 0.0000e+00 -1.0000e+00
        4 -1    0    0  501    0 +0.0000000000e+00 -0.0000000000e+00 -2.1321864722e+02 2.1322242945e+02 1.2700000000e+00 0.0000e+00 -1.0000e+00
      -13  1    1    2    0    0 -3.1195192358e+01 -2.4760831488e+01 -1.4592046414e+01 4.2416715865e+01 1.0566000000e-01 0.0000e+00 1.0000e+00
       13  1    1    2    0    0 +4.0364562137e+00 +4.7562462833e+01 +3.5525295170e+01 5.9502425249e+01 1.0566000000e-01 0.0000e+00 -1.0000e+00
    10002  1    1    2    0    0 -4.6581408815e-01 +1.6567052071e+00 -1.1490144978e+02 1.5233287504e+02 1.0000000000e+02 0.0000e+00 0.0000e+00
   -10002  1    1    2    0    0 +2.7624550232e+01 -2.4458336552e+01 +3.3505406918e+01 1.1173154566e+02 1.0000000000e+02 0.0000e+00 0.0000e+00
<mgrwt>
<rscale>  0 0.36095459E+03</rscale>
<asrwt>0</asrwt>
<pdfrwt beam="1">  1        4 0.53305794E-01 0.36095459E+03</pdfrwt>
<pdfrwt beam="2">  1       -4 0.38190096E-01 0.36095459E+03</pdfrwt>
<totfact> 0.42735617E+01</totfact>
</mgrwt>
</event>
<event>
 6      1 +2.6141198e-09 3.89567200e+02 7.81860800e-03 1.04745300e-01
        4 -1    0    0  501    0 +0.0000000000e+00 +0.0000000000e+00 +1.6483659802e+02 1.6484149037e+02 1.2700000000e+00 0.0000e+00 1.0000e+00
       -4 -1    0    0    0  501 -0.0000000000e+00 -0.0000000000e+00 -2.3016122565e+02 2.3016472948e+02 1.2700000000e+00 0.0000e+00 1.0000e+00
      -13  1    1    2    0    0 +4.1858749262e+01 +7.1460282638e+01 -6.8690331274e+01 1.0759693146e+02 1.0566000000e-01 0.0000e+00 1.0000e+00
       13  1    1    2    0    0 -2.7152147415e+01 -1.1993019160e+01 +1.2530335433e+01 3.2219436493e+01 1.0566000000e-01 0.0000e+00 -1.0000e+00
    10002  1    1    2    0    0 -5.8843939076e+01 +1.2778683444e+00 -4.6006828667e+01 1.2482335678e+02 1.0000000000e+02 0.0000e+00 0.0000e+00
   -10002  1    1    2    0    0 +4.4137337229e+01 -6.0745131823e+01 +3.6842196873e+01 1.3036649511e+02 1.0000000000e+02 0.0000e+00 0.0000e+00
<mgrwt>
<rscale>  0 0.38956720E+03</rscale>
<asrwt>0</asrwt>
<pdfrwt beam="1">  1        4 0.41210199E-01 0.38956720E+03</pdfrwt>
<pdfrwt beam="2">  1       -4 0.57541356E-01 0.38956720E+03</pdfrwt>
<totfact> 0.31420148E+01</totfact>
</mgrwt>
</event>
<event>
 6      1 +2.6141198e-09 7.19823900e+02 7.81860800e-03 9.68391900e-02
       -4 -1    0    0    0  501 -0.0000000000e+00 +0.0000000000e+00 +4.4618794187e+02 4.4618974929e+02 1.2700000000e+00 0.0000e+00 -1.0000e+00
        4 -1    0    0  501    0 +0.0000000000e+00 -0.0000000000e+00 -2.9031471923e+02 2.9031749707e+02 1.2700000000e+00 0.0000e+00 -1.0000e+00
      -13  1    1    2    0    0 +4.3320773065e+01 +2.5450434529e+01 +1.1356047969e+01 5.1511018105e+01 1.0566000000e-01 0.0000e+00 -1.0000e+00
       13  1    1    2    0    0 +2.1999631528e+01 -3.7980837051e+01 +3.3716669081e+01 5.5347562805e+01 1.0566000000e-01 0.0000e+00 1.0000e+00
    10002  1    1    2    0    0 -1.9932479225e+02 -1.3495145284e+02 -1.3852225336e+02 2.9517906787e+02 1.0000000000e+02 0.0000e+00 0.0000e+00
   -10002  1    1    2    0    0 +1.3400438766e+02 +1.4748185536e+02 +2.4932275895e+02 3.3446959758e+02 1.0000000000e+02 0.0000e+00 0.0000e+00
<mgrwt>
<rscale>  0 0.71982391E+03</rscale>
<asrwt>0</asrwt>
<pdfrwt beam="1">  1        4 0.72579253E-01 0.71982391E+03</pdfrwt>
<pdfrwt beam="2">  1       -4 0.11154756E+00 0.71982391E+03</pdfrwt>
<totfact> 0.21494016E+00</totfact>
</mgrwt>
</event>
<event>
 6      1 +2.6141198e-09 5.42077200e+02 7.81860800e-03 1.00334500e-01
       -4 -1    0    0    0  501 -0.0000000000e+00 +0.0000000000e+00 +4.3038455288e+02 4.3038642666e+02 1.2700000000e+00 0.0000e+00 1.0000e+00
        4 -1    0    0  501    0 +0.0000000000e+00 -0.0000000000e+00 -1.7068443273e+02 1.7068915747e+02 1.2700000000e+00 0.0000e+00 1.0000e+00
      -13  1    1    2    0    0 -2.6642919680e+01 +3.1792731227e+01 +1.3303833473e+01 4.3561750161e+01 1.0566000000e-01 0.0000e+00 -1.0000e+00
       13  1    1    2    0    0 -4.7034477233e+01 -8.4314696485e+01 +2.9255035731e+01 1.0088150659e+02 1.0566000000e-01 0.0000e+00 1.0000e+00
    10002  1    1    2    0    0 +1.8492089847e+02 +5.5559579953e+01 +2.1674254846e+02 3.0701781370e+02 1.0000000000e+02 0.0000e+00 0.0000e+00
   -10002  1    1    2    0    0 -1.1124350156e+02 -3.0376146951e+00 +3.9870248341e-01 1.4961451369e+02 1.0000000000e+02 0.0000e+00 0.0000e+00
<mgrwt>
<rscale>  0 0.54207721E+03</rscale>
<asrwt>0</asrwt>
<pdfrwt beam="1">  1        4 0.42671933E-01 0.54207721E+03</pdfrwt>
<pdfrwt beam="2">  1       -4 0.10759696E+00 0.54207721E+03</pdfrwt>
<totfact> 0.72394665E+00</totfact>
</mgrwt>
</event>
<event>
 6      1 +2.6141198e-09 3.78572500e+02 7.81860800e-03 1.05146300e-01
       -4 -1    0    0    0  501 -0.0000000000e+00 +0.0000000000e+00 +2.4118766883e+02 2.4119101247e+02 1.2700000000e+00 0.0000e+00 1.0000e+00
        4 -1    0    0  501    0 +0.0000000000e+00 -0.0000000000e+00 -1.4854643272e+02 1.4855186156e+02 1.2700000000e+00 0.0000e+00 1.0000e+00
      -13  1    1    2    0    0 -2.5394629940e+01 +1.1846619032e+01 -3.9563208033e+00 2.8300057431e+01 1.0566000000e-01 0.0000e+00 -1.0000e+00
       13  1    1    2    0    0 +4.6312776065e+01 -2.4172724238e+01 +1.9708767289e+00 5.2278956981e+01 1.0566000000e-01 0.0000e+00 1.0000e+00
    10002  1    1    2    0    0 -9.1788263403e+01 +2.6287023599e+01 -2.1287553189e+01 1.3989014557e+02 1.0000000000e+02 0.0000e+00 0.0000e+00
   -10002  1    1    2    0    0 +7.0870117278e+01 -1.3960918393e+01 +1.1591423338e+02 1.6927371404e+02 1.0000000000e+02 0.0000e+00 0.0000e+00
<mgrwt>
<rscale>  0 0.37857246E+03</rscale>
<asrwt>0</asrwt>
<pdfrwt beam="1">  1        4 0.37137705E-01 0.37857246E+03</pdfrwt>
<pdfrwt beam="2">  1       -4 0.60298013E-01 0.37857246E+03</pdfrwt>
<totfact> 0.34927373E+01</totfact>
</mgrwt>
</event>
<event>
 6      1 +2.6141198e-09 5.96241200e+02 7.81860800e-03 9.91323500e-02
        4 -1    0    0  501    0 +0.0000000000e+00 +0.0000000000e+00 +2.8917737478e+02 2.8918016354e+02 1.2700000000e+00 0.0000e+00 1.0000e+00
       -4 -1    0    0    0  501 -0.0000000000e+00 -0.0000000000e+00 -3.0733486729e+02 3.0733749129e+02 1.2700000000e+00 0.0000e+00 1.0000e+00
      -13  1    1    2    0    0 -1.8205299934e+00 -3.3485943747e+01 -3.0390287044e+00 3.3672980527e+01 1.0566000000e-01 0.0000e+00 -1.0000e+00
       13  1    1    2    0    0 +1.3083995627e+02 -1.3399987836e+01 -5.0839362032e+01 1.4100817610e+02 1.0566000000e-01 0.0000e+00 1.0000e+00
    10002  1    1    2    0    0 -1.4501683445e+02 -8.7431975647e+01 +1.2337201258e+02 2.3215272156e+02 1.0000000000e+02 0.0000e+00 0.0000e+00
   -10002  1    1    2    0    0 +1.5997408178e+01 +1.3431790723e+02 -8.7651114360e+01 1.8968377664e+02 1.0000000000e+02 0.0000e+00 0.0000e+00
<mgrwt>
<rscale>  0 0.59624124E+03</rscale>
<asrwt>0</asrwt>
<pdfrwt beam="1">  1        4 0.72295020E-01 0.59624124E+03</pdfrwt>
<pdfrwt beam="2">  1       -4 0.76834393E-01 0.59624124E+03</pdfrwt>
<totfact> 0.51895305E+00</totfact>
</mgrwt>
</event>
<event>
 6      1 +2.6141198e-09 4.87121700e+02 7.81860800e-03 1.01719600e-01
        4 -1    0    0  501    0 +0.0000000000e+00 +0.0000000000e+00 +9.0265307496e+01 9.0274241272e+01 1.2700000000e+00 0.0000e+00 -1.0000e+00
       -4 -1    0    0    0  501 -0.0000000000e+00 -0.0000000000e+00 -6.5715281881e+02 6.5715404599e+02 1.2700000000e+00 0.0000e+00 -1.0000e+00
      -13  1    1    2    0    0 -7.0130067185e+00 -8.1700143251e+01 -1.2135074457e+02 1.4645856083e+02 1.0566000000e-01 0.0000e+00 -1.0000e+00
       13  1    1    2    0    0 -3.9967452038e+01 -2.4864202333e+00 -1.8145691385e+02 1.8582304016e+02 1.0566000000e-01 0.0000e+00 1.0000e+00
    10002  1    1    2    0    0 +1.2528765415e+02 +1.0489783015e+02 -1.6197503701e+02 2.5087140863e+02 1.0000000000e+02 0.0000e+00 0.0000e+00
   -10002  1    1    2    0    0 -7.8307195391e+01 -2.0711266668e+01 -1.0210481588e+02 1.6427527764e+02 1.0000000000e+02 0.0000e+00 0.0000e+00
<mgrwt>
<rscale>  0 0.48712174E+03</rscale>
<asrwt>0</asrwt>
<pdfrwt beam="1">  1        4 0.22567599E-01 0.48712174E+03</pdfrwt>
<pdfrwt beam="2">  1       -4 0.16428946E+00 0.48712174E+03</pdfrwt>
<totfact> 0.84485858E+00</totfact>
</mgrwt>
</event>
<event>
 6      1 +2.6141198e-09 5.95594700e+02 7.81860800e-03 9.91458800e-02
       -4 -1    0    0    0  501 -0.0000000000e+00 +0.0000000000e+00 +3.7217381195e+02 3.7217597881e+02 1.2700000000e+00 0.0000e+00 1.0000e+00
        4 -1    0    0  501    0 +0.0000000000e+00 -0.0000000000e+00 -2.3827998946e+02 2.3828337390e+02 1.2700000000e+00 0.0000e+00 1.0000e+00
      -13  1    1    2    0    0 +1.2899352392e+01 +7.3404889361e+01 -1.2506720579e+01 7.5571822116e+01 1.0566000000e-01 0.0000e+00 -1.0000e+00
       13  1    1    2    0    0 -7.6055682595e+01 +7.1664678198e+01 +5.0444117203e+01 1.1603841209e+02 1.0566000000e-01 0.0000e+00 1.0000e+00
    10002  1    1    2    0    0 +3.6452885684e+01 +7.0765702267e+01 -5.1395498028e+01 1.3776100577e+02 1.0000000000e+02 0.0000e+00 0.0000e+00
   -10002  1    1    2    0    0 +2.6703444519e+01 -2.1583526983e+02 +1.4735192389e+02 2.8108811274e+02 1.0000000000e+02 0.0000e+00 0.0000e+00
<mgrwt>
<rscale>  0 0.59559472E+03</rscale>
<asrwt>0</asrwt>
<pdfrwt beam="1">  1        4 0.59570691E-01 0.59559472E+03</pdfrwt>
<pdfrwt beam="2">  1       -4 0.93044147E-01 0.59559472E+03</pdfrwt>
<totfact> 0.51078237E+00</totfact>
</mgrwt>
</event>
<event>
 6      1 +2.6141198e-09 5.21988400e+02 7.81860800e-03 1.00819400e-01
        4 -1    0    0  501    0 +0.0000000000e+00 +0.0000000000e+00 +7.1027406280e+01 7.1038759441e+01 1.2700000000e+00 0.0000e+00 1.0000e+00
       -4 -1    0    0    0  501 -0.0000000000e+00 -0.0000000000e+00 -9.5894934228e+02 9.5895018326e+02 1.2700000000e+00 0.0000e+00 1.0000e+00
      -13  1    1    2    0    0 +7.0617495531e+00 -4.2693636210e+01 -1.2335074685e+02 1.3072120254e+02 1.0566000000e-01 0.0000e+00 -1.0000e+00
       13  1    1    2    0    0 -1.9413964425e+01 +2.1538779215e+00 +1.0895300731e+01 2.2366491608e+01 1.0566000000e-01 0.0000e+00 1.0000e+00
    10002  1    1    2    0    0 -9.2969038496e+00 -9.2825349967e+01 -7.3838928125e+01 1.5541932095e+02 1.0000000000e+02 0.0000e+00 0.0000e+00
   -10002  1    1    2    0    0 +2.1649118721e+01 +1.3336510825e+02 -7.0162756176e+02 7.2148192760e+02 1.0000000000e+02 0.0000e+00 0.0000e+00
<mgrwt>
<rscale>  0 0.52198837E+03</rscale>
<asrwt>0</asrwt>
<pdfrwt beam="1">  1        4 0.17758379E-01 0.52198837E+03</pdfrwt>
<pdfrwt beam="2">  1       -4 0.23973882E+00 0.52198837E+03</pdfrwt>
<totfact> 0.42344688E+00</totfact>
</mgrwt>
</event>
<event>
 6      1 +2.6141198e-09 6.87768400e+02 7.81860800e-03 9.73838100e-02
       -4 -1    0    0    0  501 -0.0000000000e+00 +0.0000000000e+00 +1.8702666589e+02 1.8703097780e+02 1.2700000000e+00 0.0000e+00 -1.0000e+00
        4 -1    0    0  501    0 +0.0000000000e+00 -0.0000000000e+00 -6.3228449806e+02 6.3228577351e+02 1.2700000000e+00 0.0000e+00 -1.0000e+00
      -13  1    1    2    0    0 -3.3339804996e+01 -7.0825321751e+01 -3.4342568034e+01 8.5482114746e+01 1.0566000000e-01 0.0000e+00 -1.0000e+00
       13  1    1    2    0    0 +3.3543255912e+01 +1.4360865958e+01 -4.6911790610e+00 3.6788623422e+01 1.0566000000e-01 0.0000e+00 1.0000e+00
    10002  1    1    2    0    0 +2.1113810843e+02 +9.4585001751e+01 -3.8371043884e+02 4.5908531261e+02 1.0000000000e+02 0.0000e+00 0.0000e+00
   -10002  1    1    2    0    0 -2.1134155934e+02 -3.8120545958e+01 -2.2513646236e+01 2.3796070053e+02 1.0000000000e+02 0.0000e+00 0.0000e+00
<mgrwt>
<rscale>  0 0.68776842E+03</rscale>
<asrwt>0</asrwt>
<pdfrwt beam="1">  1        4 0.15807182E+00 0.68776842E+03</pdfrwt>
<pdfrwt beam="2">  1       -4 0.46757366E-01 0.68776842E+03</pdfrwt>
<totfact> 0.22618785E+00</totfact>
</mgrwt>
</event>
<event>
 6      1 +2.6141198e-09 3.80288000e+02 7.81860800e-03 1.05082700e-01
       -4 -1    0    0    0  501 -0.0000000000e+00 +0.0000000000e+00 +3.6458280240e+02 3.6458501437e+02 1.2700000000e+00 0.0000e+00 1.0000e+00
        4 -1    0    0  501    0 +0.0000000000e+00 -0.0000000000e+00 -9.9160864580e+01 9.9168996991e+01 1.2700000000e+00 0.0000e+00 1.0000e+00
      -13  1    1    2    0    0 +3.4551790623e+01 -1.2364398180e+01 -6.2188946237e+00 3.7220832768e+01 1.0566000000e-01 0.0000e+00 1.0000e+00
       13  1    1    2    0    0 -4.5596546885e+01 -4.7419704819e+01 +6.1897288997e+01 9.0326956343e+01 1.0566000000e-01 0.0000e+00 -1.0000e+00
    10002  1    1    2    0    0 +1.3804614204e+01 -4.6815065854e+01 +5.7937696091e+01 1.2545514893e+02 1.0000000000e+02 0.0000e+00 0.0000e+00
   -10002  1    1    2    0    0 -2.7598579418e+00 +1.0659916885e+02 +1.5180584735e+02 2.1075107332e+02 1.0000000000e+02 0.0000e+00 0.0000e+00
<mgrwt>
<rscale>  0 0.38028802E+03</rscale>
<asrwt>0</asrwt>
<pdfrwt beam="1">  1        4 0.24791509E-01 0.38028802E+03</pdfrwt>
<pdfrwt beam="2">  1       -4 0.91146993E-01 0.38028802E+03</pdfrwt>
<totfact> 0.30377207E+01</totfact>
</mgrwt>
</event>
<event>
 6      1 +2.6141198e-09 4.24445100e+02 7.81860800e-03 1.03562900e-01
       -4 -1    0    0    0  501 -0.0000000000e+00 +0.0000000000e+00 +5.1954289807e+02 5.1954445030e+02 1.2700000000e+00 0.0000e+00 1.0000e+00
        4 -1    0    0  501    0 +0.0000000000e+00 -0.0000000000e+00 -8.6682215599e+01 8.6691518623e+01 1.2700000000e+00 0.0000e+00 1.0000e+00
      -13  1    1    2    0    0 -6.4562374051e+01 +3.3068347885e+01 +1.7588106992e+02 1.9025240523e+02 1.0566000000e-01 0.0000e+00 1.0000e+00
       13  1    1    2    0    0 +2.8926385282e+01 -4.9640676683e+00 +5.5949467695e+01 6.3180153788e+01 1.0566000000e-01 0.0000e+00 -1.0000e+00
    10002  1    1    2    0    0 +6.7042740797e+01 -8.3876642922e+01 +1.7999399667e+02 2.3222372652e+02 1.0000000000e+02 0.0000e+00 0.0000e+00
   -10002  1    1    2    0    0 -3.1406752028e+01 +5.5772362705e+01 +2.1036148187e+01 1.2057968339e+02 1.0000000000e+02 0.0000e+00 0.0000e+00
<mgrwt>
<rscale>  0 0.42444514E+03</rscale>
<asrwt>0</asrwt>
<pdfrwt beam="1">  1        4 0.21671911E-01 0.42444514E+03</pdfrwt>
<pdfrwt beam="2">  1       -4 0.12988708E+00 0.42444514E+03</pdfrwt>
<totfact> 0.16733203E+01</totfact>
</mgrwt>
</event>
<event>
 6      1 +2.6141198e-09 7.65568100e+02 7.81860800e-03 9.61123800e-02
        4 -1    0    0  501    0 +0.0000000000e+00 +0.0000000000e+00 +5.0766861231e+02 5.0767020085e+02 1.2700000000e+00 0.0000e+00 -1.0000e+00
       -4 -1    0    0    0  501 -0.0000000000e+00 -0.0000000000e+00 -2.8861721903e+02 2.8862001320e+02 1.2700000000e+00 0.0000e+00 -1.0000e+00
      -13  1    1    2    0    0 +2.0095698930e+02 -1.3402384619e+02 +1.4258827492e+02 2.8049515183e+02 1.0566000000e-01 0.0000e+00 -1.0000e+00
       13  1    1    2    0    0 +2.8234065586e+01 -2.4840244025e+01 -1.9366929859e+01 4.2299991950e+01 1.0566000000e-01 0.0000e+00 1.0000e+00
    10002  1    1    2    0    0 +4.2449840462e+01 +2.6227959328e+01 -5.1026136817e+01 1.2285585637e+02 1.0000000000e+02 0.0000e+00 0.0000e+00
   -10002  1    1    2    0    0 -2.7164089534e+02 +1.3263613088e+02 +1.4685618503e+02 3.5063921390e+02 1.0000000000e+02 0.0000e+00 0.0000e+00
<mgrwt>
<rscale>  0 0.76556815E+03</rscale>
<asrwt>0</asrwt>
<pdfrwt beam="1">  1        4 0.12691770E+00 0.76556815E+03</pdfrwt>
<pdfrwt beam="2">  1       -4 0.72154853E-01 0.76556815E+03</pdfrwt>
<totfact> 0.15790589E+00</totfact>
</mgrwt>
</event>
<event>
 6      1 +2.6141198e-09 5.36918100e+02 7.81860800e-03 1.00456800e-01
        4 -1    0    0  501    0 +0.0000000000e+00 +0.0000000000e+00 +5.8251608736e+02 5.8251747178e+02 1.2700000000e+00 0.0000e+00 1.0000e+00
       -4 -1    0    0    0  501 -0.0000000000e+00 -0.0000000000e+00 -1.2371754493e+02 1.2372406323e+02 1.2700000000e+00 0.0000e+00 1.0000e+00
      -13  1    1    2    0    0 -1.0690387393e+01 +2.2502810909e+01 +1.2635616330e+01 2.7934402544e+01 1.0566000000e-01 0.0000e+00 -1.0000e+00
       13  1    1    2    0    0 +9.6048555826e+01 -5.3219002051e+01 +1.3468122386e+02 1.7377177700e+02 1.0566000000e-01 0.0000e+00 1.0000e+00
    10002  1    1    2    0    0 +9.7733945542e+01 +7.5132990613e+01 +4.8606074210e+01 1.6601036365e+02 1.0000000000e+02 0.0000e+00 0.0000e+00
   -10002  1    1    2    0    0 -1.8309211398e+02 -4.4416799471e+01 +2.6287562803e+02 3.3852499182e+02 1.0000000000e+02 0.0000e+00 0.0000e+00
<mgrwt>
<rscale>  0 0.53691806E+03</rscale>
<asrwt>0</asrwt>
<pdfrwt beam="1">  1        4 0.14563001E+00 0.53691806E+03</pdfrwt>
<pdfrwt beam="2">  1       -4 0.30930374E-01 0.53691806E+03</pdfrwt>
<totfact> 0.64184839E+00</totfact>
</mgrwt>
</event>
<event>
 6      1 +2.6141198e-09 8.30792600e+02 7.81860800e-03 9.51648500e-02
       -4 -1    0    0    0  501 -0.0000000000e+00 +0.0000000000e+00 +9.0564949756e+02 9.0565038803e+02 1.2700000000e+00 0.0000e+00 -1.0000e+00
        4 -1    0    0  501    0 +0.0000000000e+00 -0.0000000000e+00 -1.9052767631e+02 1.9053190898e+02 1.2700000000e+00 0.0000e+00 -1.0000e+00
      -13  1    1    2    0    0 -7.0817272468e+01 +5.5557294584e+01 +4.4316357683e+01 1.0032771194e+02 1.0566000000e-01 0.0000e+00 -1.0000e+00
       13  1    1    2    0    0 -8.1094223928e+01 -1.2534260693e+02 +9.9081186056e+01 1.7917626757e+02 1.0566000000e-01 0.0000e+00 1.0000e+00
    10002  1    1    2    0    0 +2.4756613737e+02 +2.2501675466e+02 +2.3491238398e+02 4.2083887700e+02 1.0000000000e+02 0.0000e+00 0.0000e+00
   -10002  1    1    2    0    0 -9.5654640969e+01 -1.5523144231e+02 +3.3681189353e+02 3.9583944049e+02 1.0000000000e+02 0.0000e+00 0.0000e+00
<mgrwt>
<rscale>  0 0.83079264E+03</rscale>
<asrwt>0</asrwt>
<pdfrwt beam="1">  1        4 0.47632560E-01 0.83079264E+03</pdfrwt>
<pdfrwt beam="2">  1       -4 0.22641301E+00 0.83079264E+03</pdfrwt>
<totfact> 0.75114530E-01</totfact>
</mgrwt>
</event>
<event>
 6      1 +2.6141198e-09 7.00649800e+02 7.81860800e-03 9.71612200e-02
        4 -1    0    0  501    0 +0.0000000000e+00 +0.0000000000e+00 +1.5481988712e+02 1.5482509599e+02 1.2700000000e+00 0.0000e+00 -1.0000e+00
       -4 -1    0    0    0  501 -0.0000000000e+00 -0.0000000000e+00 -7.9269271139e+02 7.9269372874e+02 1.2700000000e+00 0.0000e+00 -1.0000e+00
      -13  1    1    2    0    0 -5.2758119300e+01 -9.9905870335e+00 -2.7555511791e+02 2.8073807215e+02 1.0566000000e-01 0.0000e+00 1.0000e+00
       13  1    1    2    0    0 -2.2249512506e+01 -2.2085007619e+01 -4.4622967644e+01 5.4534473259e+01 1.0566000000e-01 0.0000e+00 -1.0000e+00
    10002  1    1    2    0    0 -1.3473280612e+02 -2.0649577826e+01 -3.3303553920e+02 3.7348628420e+02 1.0000000000e+02 0.0000e+00 0.0000e+00
   -10002  1    1    2    0    0 +2.0974043793e+02 +5.2725172478e+01 +1.5340800496e+01 2.3875999513e+02 1.0000000000e+02 0.0000e+00 0.0000e+00
<mgrwt>
<rscale>  0 0.70064983E+03</rscale>
<asrwt>0</asrwt>
<pdfrwt beam="1">  1        4 0.38705752E-01 0.70064983E+03</pdfrwt>
<pdfrwt beam="2">  1       -4 0.19817395E+00 0.70064983E+03</pdfrwt>
<totfact> 0.17492941E+00</totfact>
</mgrwt>
</event>
<event>
 6      1 +2.6141198e-09 4.26428100e+02 7.81860800e-03 1.03499400e-01
       -4 -1    0    0    0  501 -0.0000000000e+00 +0.0000000000e+00 +3.7792963942e+01 3.7814296550e+01 1.2700000000e+00 0.0000e+00 -1.0000e+00
        4 -1    0    0  501    0 +0.0000000000e+00 -0.0000000000e+00 -1.2025142765e+03 1.2025149471e+03 1.2700000000e+00 0.0000e+00 -1.0000e+00
      -13  1    1    2    0    0 +3.0709592163e+01 +6.7940363636e+01 -2.9671526478e+02 3.0593942469e+02 1.0566000000e-01 0.0000e+00 -1.0000e+00
       13  1    1    2    0    0 +3.9777381655e+01 -3.5657402254e+01 -1.1221916856e+02 1.2428533052e+02 1.0566000000e-01 0.0000e+00 1.0000e+00
    10002  1    1    2    0    0 -6.6964266101e+01 +7.2890885718e+01 -4.5239333839e+02 4.7376895928e+02 1.0000000000e+02 0.0000e+00 0.0000e+00
   -10002  1    1    2    0    0 -3.5227077174e+00 -1.0517384710e+02 -3.0339354083e+02 3.3633552919e+02 1.0000000000e+02 0.0000e+00 0.0000e+00
<mgrwt>
<rscale>  0 0.42642807E+03</rscale>
<asrwt>0</asrwt>
<pdfrwt beam="1">  1        4 0.30063119E+00 0.42642807E+03</pdfrwt>
<pdfrwt beam="2">  1       -4 0.94509954E-02 0.42642807E+03</pdfrwt>
<totfact> 0.55201426E+00</totfact>
</mgrwt>
</event>
<event>
 6      1 +2.6141198e-09 4.63900400e+02 7.81860800e-03 1.02365600e-01
        4 -1    0    0  501    0 +0.0000000000e+00 +0.0000000000e+00 +4.8988337080e+02 4.8988501700e+02 1.2700000000e+00 0.0000e+00 1.0000e+00
       -4 -1    0    0    0  501 -0.0000000000e+00 -0.0000000000e+00 -1.0981838848e+02 1.0982573173e+02 1.2700000000e+00 0.0000e+00 1.0000e+00
      -13  1    1    2    0    0 -4.3121601452e+01 -1.0838932614e+01 -2.1151056354e+01 4.9237519443e+01 1.0566000000e-01 0.0000e+00 -1.0000e+00
       13  1    1    2    0    0 +2.9181066159e+01 -9.4646752308e+00 +3.9751135525e+01 5.0212335526e+01 1.0566000000e-01 0.0000e+00 1.0000e+00
    10002  1    1    2    0    0 +1.9241223108e+01 +1.4493077626e+02 +1.3341951748e+02 2.2175644798e+02 1.0000000000e+02 0.0000e+00 0.0000e+00
   -10002  1    1    2    0    0 -5.3006878152e+00 -1.2462716842e+02 +2.2804538566e+02 2.7850444578e+02 1.0000000000e+02 0.0000e+00 0.0000e+00
<mgrwt>
<rscale>  0 0.46390041E+03</rscale>
<asrwt>0</asrwt>
<pdfrwt beam="1">  1        4 0.12247197E+00 0.46390041E+03</pdfrwt>
<pdfrwt beam="2">  1       -4 0.27455721E-01 0.46390041E+03</pdfrwt>
<totfact> 0.12485408E+01</totfact>
</mgrwt>
</event>
<event>
 6      1 +2.6141198e-09 5.30106200e+02 7.81860800e-03 1.00620600e-01
        4 -1    0    0  501    0 +0.0000000000e+00 +0.0000000000e+00 +1.1099654386e+02 1.1100380916e+02 1.2700000000e+00 0.0000e+00 -1.0000e+00
       -4 -1    0    0    0  501 -0.0000000000e+00 -0.0000000000e+00 -6.3290230526e+02 6.3290357946e+02 1.2700000000e+00 0.0000e+00 -1.0000e+00
      -13  1    1    2    0    0 +2.5176948989e+01 +9.0171083396e+00 +1.9640635637e+01 3.3180607822e+01 1.0566000000e-01 0.0000e+00 1.0000e+00
       13  1    1    2    0    0 +5.0308280128e+01 +2.3861552005e+01 -9.7125731562e+01 1.1195407813e+02 1.0566000000e-01 0.0000e+00 -1.0000e+00
    10002  1    1    2    0    0 +1.0385367708e+02 -7.6887033337e+01 -8.9288575974e+01 1.8619788381e+02 1.0000000000e+02 0.0000e+00 0.0000e+00
   -10002  1    1    2    0    0 -1.7933890619e+02 +4.4008372993e+01 -3.5513208950e+02 4.1257481886e+02 1.0000000000e+02 0.0000e+00 0.0000e+00
<mgrwt>
<rscale>  0 0.53010620E+03</rscale>
<asrwt>0</asrwt>
<pdfrwt beam="1">  1        4 0.27750205E-01 0.53010620E+03</pdfrwt>
<pdfrwt beam="2">  1       -4 0.15822663E+00 0.53010620E+03</pdfrwt>
<totfact> 0.63468396E+00</totfact>
</mgrwt>
</event>
<event>
 6      1 +2.6141198e-09 6.13885000e+02 7.81860800e-03 9.87701100e-02
        4 -1    0    0  501    0 +0.0000000000e+00 +0.0000000000e+00 +2.0471891314e+02 2.0472285241e+02 1.2700000000e+00 0.0000e+00 1.0000e+00
       -4 -1    0    0    0  501 -0.0000000000e+00 -0.0000000000e+00 -4.6020078084e+02 4.6020253322e+02 1.2700000000e+00 0.0000e+00 1.0000e+00
      -13  1    1    2    0    0 +3.3014692081e+01 +6.3142942945e+00 -9.3305773317e+00 3.4884252078e+01 1.0566000000e-01 0.0000e+00 1.0000e+00
       13  1    1    2    0    0 +3.4536791506e+01 +1.7803396373e+02 +4.0802563280e+01 1.8588636997e+02 1.0566000000e-01 0.0000e+00 -1.0000e+00
    10002  1    1    2    0    0 +5.8128624979e+00 -1.2481032450e+02 -4.5703207081e+01 1.6643373940e+02 1.0000000000e+02 0.0000e+00 0.0000e+00
   -10002  1    1    2    0    0 -7.3364346086e+01 -5.9537933521e+01 -2.4125064657e+02 2.7772102418e+02 1.0000000000e+02 0.0000e+00 0.0000e+00
<mgrwt>
<rscale>  0 0.61388499E+03</rscale>
<asrwt>0</asrwt>
<pdfrwt beam="1">  1        4 0.51180441E-01 0.61388499E+03</pdfrwt>
<pdfrwt beam="2">  1       -4 0.11505090E+00 0.61388499E+03</pdfrwt>
<totfact> 0.42381744E+00</totfact>
</mgrwt>
</event>
<event>
 6      1 +2.6141198e-09 4.87039900e+02 7.81860800e-03 1.01721800e-01
        4 -1    0    0  501    0 +0.0000000000e+00 +0.0000000000e+00 +3.2610337521e+01 3.2635058039e+01 1.2700000000e+00 0.0000e+00 1.0000e+00
       -4 -1    0    0    0  501 -0.0000000000e+00 -0.0000000000e+00 -1.8177882855e+03 1.8177887292e+03 1.2700000000e+00 0.0000e+00 1.0000e+00
      -13  1    1    2    0    0 +3.7437046862e+01 -6.0578378189e+00 -5.2458871831e+01 6.4731555478e+01 1.0566000000e-01 0.0000e+00 1.0000e+00
       13  1    1    2    0    0 -3.6612647809e+01 +7.0995902228e+01 -2.2139760159e+02 2.3536740061e+02 1.0566000000e-01 0.0000e+00 -1.0000e+00
    10002  1    1    2    0    0 +6.5162363240e+00 +9.6877243728e+01 -4.1997978830e+02 4.4250501044e+02 1.0000000000e+02 0.0000e+00 0.0000e+00
   -10002  1    1    2    0    0 -7.3406353766e+00 -1.6181530814e+02 -1.0913416863e+03 1.1078198207e+03 1.0000000000e+02 0.0000e+00 0.0000e+00
<mgrwt>
<rscale>  0 0.48703992E+03</rscale>
<asrwt>0</asrwt>
<pdfrwt beam="1">  1        4 0.81557360E-02 0.48703992E+03</pdfrwt>
<pdfrwt beam="2">  1       -4 0.45444988E+00 0.48703992E+03</pdfrwt>
<totfact> 0.67782156E-01</totfact>
</mgrwt>
</event>
<event>
 6      1 +2.6141198e-09 4.88403200e+02 7.81860800e-03 1.01685100e-01
        4 -1    0    0  501    0 +0.0000000000e+00 +0.0000000000e+00 +1.0983199793e+02 1.0983934026e+02 1.2700000000e+00 0.0000e+00 -1.0000e+00
       -4 -1    0    0    0  501 -0.0000000000e+00 -0.0000000000e+00 -5.4293422638e+02 5.4293571173e+02 1.2700000000e+00 0.0000e+00 -1.0000e+00
      -13  1    1    2    0    0 -7.6532327301e+00 -3.7502736627e+01 -6.9005713698e+01 7.8910245930e+01 1.0566000000e-01 0.0000e+00 -1.0000e+00
       13  1    1    2    0    0 +2.8754581090e+01 +6.2732157209e+01 -1.2890234991e+02 1.4621209409e+02 1.0566000000e-01 0.0000e+00 1.0000e+00
    10002  1    1    2    0    0 -7.7737299621e+01 +1.1286665710e+02 -1.5895834446e+02 2.3248596799e+02 1.0000000000e+02 0.0000e+00 0.0000e+00
   -10002  1    1    2    0    0 +5.6635951261e+01 -1.3809607769e+02 -7.6235820375e+01 1.9516674398e+02 1.0000000000e+02 0.0000e+00 0.0000e+00
<mgrwt>
<rscale>  0 0.48840324E+03</rscale>
<asrwt>0</asrwt>
<pdfrwt beam="1">  1        4 0.27459104E-01 0.48840324E+03</pdfrwt>
<pdfrwt beam="2">  1       -4 0.13573465E+00 0.48840324E+03</pdfrwt>
<totfact> 0.96567101E+00</totfact>
</mgrwt>
</event>
<event>
 6      1 +2.6141198e-09 7.22449900e+02 7.81860800e-03 9.67959200e-02
       -4 -1    0    0    0  501 -0.0000000000e+00 +0.0000000000e+00 +2.4000332158e+02 2.4000668172e+02 1.2700000000e+00 0.0000e+00 -1.0000e+00
        4 -1    0    0  501    0 +0.0000000000e+00 -0.0000000000e+00 -5.4366565055e+02 5.4366713390e+02 1.2700000000e+00 0.0000e+00 -1.0000e+00
      -13  1    1    2    0    0 -8.7138567334e+01 -1.1737971011e+02 -1.2785139281e+00 1.4619429545e+02 1.0566000000e-01 0.0000e+00 -1.0000e+00
       13  1    1    2    0    0 -6.0156464788e+01 +8.2422441784e+01 -6.9496389060e+01 1.2345856966e+02 1.0566000000e-01 0.0000e+00 1.0000e+00
    10002  1    1    2    0    0 +2.5675784552e+02 +8.2190126121e+01 -2.1150947693e+02 3.5695387223e+02 1.0000000000e+02 0.0000e+00 0.0000e+00
   -10002  1    1    2    0    0 -1.0946281340e+02 -4.7232857799e+01 -2.1377949046e+01 1.5706707828e+02 1.0000000000e+02 0.0000e+00 0.0000e+00
<mgrwt>
<rscale>  0 0.72244989E+03</rscale>
<asrwt>0</asrwt>
<pdfrwt beam="1">  1        4 0.13591702E+00 0.72244989E+03</pdfrwt>
<pdfrwt beam="2">  1       -4 0.60001437E-01 0.72244989E+03</pdfrwt>
<totfact> 0.19892099E+00</totfact>
</mgrwt>
</event>
<event>
 6      1 +2.6141198e-09 7.39553800e+02 7.81860800e-03 9.65188300e-02
        4 -1    0    0  501    0 +0.0000000000e+00 +0.0000000000e+00 +1.1775527135e+02 1.1776211967e+02 1.2700000000e+00 0.0000e+00 -1.0000e+00
       -4 -1    0    0    0  501 -0.0000000000e+00 -0.0000000000e+00 -1.1611381577e+03 1.1611388522e+03 1.2700000000e+00 0.0000e+00 -1.0000e+00
      -13  1    1    2    0    0 -5.1095483730e+01 +3.0652067890e+01 -1.1552041689e+02 1.2998182799e+02 1.0566000000e-01 0.0000e+00 -1.0000e+00
       13  1    1    2    0    0 +5.6724403853e+01 +5.2529772581e+01 -1.9040459867e+02 2.0550172106e+02 1.0566000000e-01 0.0000e+00 1.0000e+00
    10002  1    1    2    0    0 +5.4527189620e+01 +2.2830880816e+02 -2.9903389239e+02 3.9308955098e+02 1.0000000000e+02 0.0000e+00 0.0000e+00
   -10002  1    1    2    0    0 -6.0156109744e+01 -3.1149064863e+02 -4.3842397835e+02 5.5032787183e+02 1.0000000000e+02 0.0000e+00 0.0000e+00
<mgrwt>
<rscale>  0 0.73955382E+03</rscale>
<asrwt>0</asrwt>
<pdfrwt beam="1">  1        4 0.29439764E-01 0.73955382E+03</pdfrwt>
<pdfrwt beam="2">  1       -4 0.29028545E+00 0.73955382E+03</pdfrwt>
<totfact> 0.80359141E-01</totfact>
</mgrwt>
</event>
<event>
 6      1 +2.6141198e-09 5.26017000e+02 7.81860800e-03 1.00720300e-01
       -4 -1    0    0    0  501 -0.0000000000e+00 +0.0000000000e+00 +4.6946017702e+02 4.6946189484e+02 1.2700000000e+00 0.0000e+00 1.0000e+00
        4 -1    0    0  501    0 +0.0000000000e+00 -0.0000000000e+00 -1.4734208948e+02 1.4734756269e+02 1.2700000000e+00 0.0000e+00 1.0000e+00
      -13  1    1    2    0    0 -1.8048383853e+01 +2.0548191440e+01 +1.8820925090e+01 3.3199558979e+01 1.0566000000e-01 0.0000e+00 1.0000e+00
       13  1    1    2    0    0 +2.4333583908e+01 -9.1878759102e+01 +1.4159924799e+01 9.6095495807e+01 1.0566000000e-01 0.0000e+00 -1.0000e+00
    10002  1    1    2    0    0 -3.8311269668e+01 -1.1491077084e+02 +2.0380871095e+02 2.5731348448e+02 1.0000000000e+02 0.0000e+00 0.0000e+00
   -10002  1    1    2    0    0 +3.2026069613e+01 +1.8624133850e+02 +8.5328526707e+01 2.3020091827e+02 1.0000000000e+02 0.0000e+00 0.0000e+00
<mgrwt>
<rscale>  0 0.52601696E+03</rscale>
<asrwt>0</asrwt>
<pdfrwt beam="1">  1        4 0.36836422E-01 0.52601696E+03</pdfrwt>
<pdfrwt beam="2">  1       -4 0.11736594E+00 0.52601696E+03</pdfrwt>
<totfact> 0.78675648E+00</totfact>
</mgrwt>
</event>
<event>
 6      1 +2.6141198e-09 4.10949100e+02 7.81860800e-03 1.04005300e-01
       -4 -1    0    0    0  501 -0.0000000000e+00 +0.0000000000e+00 +4.3798333850e+02 4.3798517978e+02 1.2700000000e+00 0.0000e+00 -1.0000e+00
        4 -1    0    0  501    0 +0.0000000000e+00 -0.0000000000e+00 -9.6389659410e+01 9.6398025608e+01 1.2700000000e+00 0.0000e+00 -1.0000e+00
      -13  1    1    2    0    0 -4.1155352042e+01 -3.8228587266e+01 +4.5361434917e+01 7.2200130387e+01 1.0566000000e-01 0.0000e+00 -1.0000e+00
       13  1    1    2    0    0 +4.4910572758e+01 +1.6958413756e-01 +3.7090180635e+01 5.8246724954e+01 1.0566000000e-01 0.0000e+00 1.0000e+00
    10002  1    1    2    0    0 +2.2211626991e+01 +1.0097400251e+02 +2.4233755996e+02 2.8180950751e+02 1.0000000000e+02 0.0000e+00 0.0000e+00
   -10002  1    1    2    0    0 -2.5966847708e+01 -6.2914999385e+01 +1.6804503584e+01 1.2212684254e+02 1.0000000000e+02 0.0000e+00 0.0000e+00
<mgrwt>
<rscale>  0 0.41094911E+03</rscale>
<asrwt>0</asrwt>
<pdfrwt beam="1">  1        4 0.24098691E-01 0.41094911E+03</pdfrwt>
<pdfrwt beam="2">  1       -4 0.10949711E+00 0.41094911E+03</pdfrwt>
<totfact> 0.20872925E+01</totfact>
</mgrwt>
</event>
<event>
 6      1 +2.6141198e-09 4.57555300e+02 7.81860800e-03 1.02549300e-01
        4 -1    0    0  501    0 +0.0000000000e+00 +0.0000000000e+00 +1.4443328046e+02 1.4443886390e+02 1.2700000000e+00 0.0000e+00 -1.0000e+00
       -4 -1    0    0    0  501 -0.0000000000e+00 -0.0000000000e+00 -3.6236267978e+02 3.6236490530e+02 1.2700000000e+00 0.0000e+00 -1.0000e+00
      -13  1    1    2    0    0 +1.6137654991e+01 +3.3933257884e+01 -9.7899664085e+01 1.0486298342e+02 1.0566000000e-01 0.0000e+00 1.0000e+00
       13  1    1    2    0    0 -1.7580575942e+01 +7.0970216238e+01 +5.0064012228e+00 7.3286584452e+01 1.0566000000e-01 0.0000e+00 -1.0000e+00
    10002  1    1    2    0    0 -6.7343189721e+01 -1.3058484591e+02 -9.2686068671e+01 2.0044504112e+02 1.0000000000e+02 0.0000e+00 0.0000e+00
   -10002  1    1    2    0    0 +6.8786110672e+01 +2.5681371788e+01 -3.2350067785e+01 1.2820916022e+02 1.0000000000e+02 0.0000e+00 0.0000e+00
<mgrwt>
<rscale>  0 0.45755528E+03</rscale>
<asrwt>0</asrwt>
<pdfrwt beam="1">  1        4 0.36109297E-01 0.45755528E+03</pdfrwt>
<pdfrwt beam="2">  1       -4 0.90591644E-01 0.45755528E+03</pdfrwt>
<totfact> 0.15102904E+01</totfact>
</mgrwt>
</event>
<event>
 6      1 +2.6141198e-09 3.95401500e+02 7.81860800e-03 1.04538400e-01
        4 -1    0    0  501    0 +0.0000000000e+00 +0.0000000000e+00 +1.0806988208e+02 1.0807734413e+02 1.2700000000e+00 0.0000e+00 -1.0000e+00
       -4 -1    0    0    0  501 -0.0000000000e+00 -0.0000000000e+00 -3.6164846659e+02 3.6165069651e+02 1.2700000000e+00 0.0000e+00 -1.0000e+00
      -13  1    1    2    0    0 +2.1342620935e+01 -2.8847931493e+01 -5.7039267932e+01 6.7388425342e+01 1.0566000000e-01 0.0000e+00 -1.0000e+00
       13  1    1    2    0    0 -3.1472974693e+01 +1.7909948178e+00 +2.7430003811e+01 4.1787223784e+01 1.0566000000e-01 0.0000e+00 1.0000e+00
    10002  1    1    2    0    0 +8.6424809427e+01 +7.0099701220e+01 -1.1881847844e+02 1.9105247084e+02 1.0000000000e+02 0.0000e+00 0.0000e+00
   -10002  1    1    2    0    0 -7.6294455670e+01 -4.3042764545e+01 -1.0515084194e+02 1.6949992067e+02 1.0000000000e+02 0.0000e+00 0.0000e+00
<mgrwt>
<rscale>  0 0.39540148E+03</rscale>
<asrwt>0</asrwt>
<pdfrwt beam="1">  1        4 0.27018683E-01 0.39540148E+03</pdfrwt>
<pdfrwt beam="2">  1       -4 0.90413325E-01 0.39540148E+03</pdfrwt>
<totfact> 0.26384568E+01</totfact>
</mgrwt>
</event>
<event>
 6      1 +2.6141198e-09 5.52770500e+02 7.81860800e-03 1.00085500e-01
        4 -1    0    0  501    0 +0.0000000000e+00 +0.0000000000e+00 +7.1293725580e+01 7.1305036338e+01 1.2700000000e+00 0.0000e+00 1.0000e+00
       -4 -1    0    0    0  501 -0.0000000000e+00 -0.0000000000e+00 -1.0713693350e+03 1.0713700877e+03 1.2700000000e+00 0.0000e+00 1.0000e+00
      -13  1    1    2    0    0 -5.6524985363e+01 +2.1325233578e+01 -2.7125668452e+00 6.0474860399e+01 1.0566000000e-01 0.0000e+00 1.0000e+00
       13  1    1    2    0    0 +1.6995333719e+01 +3.2859210670e+01 -7.1383431923e+01 8.0400090865e+01 1.0566000000e-01 0.0000e+00 -1.0000e+00
    10002  1    1    2    0    0 -5.3894746904e+01 -1.1040050734e+02 -7.7268940988e+02 7.8875968451e+02 1.0000000000e+02 0.0000e+00 0.0000e+00
   -10002  1    1    2    0    0 +9.3424398548e+01 +5.6216063091e+01 -1.5329020072e+02 2.1304048824e+02 1.0000000000e+02 0.0000e+00 0.0000e+00
<mgrwt>
<rscale>  0 0.55277049E+03</rscale>
<asrwt>0</asrwt>
<pdfrwt beam="1">  1        4 0.17824943E-01 0.55277049E+03</pdfrwt>
<pdfrwt beam="2">  1       -4 0.26784379E+00 0.55277049E+03</pdfrwt>
<totfact> 0.28407155E+00</totfact>
</mgrwt>
</event>
<event>
 6      1 +2.6141198e-09 4.59416600e+02 7.81860800e-03 1.02495100e-01
        4 -1    0    0  501    0 +0.0000000000e+00 +0.0000000000e+00 +1.2081297584e+02 1.2081965085e+02 1.2700000000e+00 0.0000e+00 1.0000e+00
       -4 -1    0    0    0  501 -0.0000000000e+00 -0.0000000000e+00 -4.3673727754e+02 4.3673912407e+02 1.2700000000e+00 0.0000e+00 1.0000e+00
      -13  1    1    2    0    0 -3.8025652485e+01 +1.7304546316e+01 -2.3339208824e+01 4.7855275599e+01 1.0566000000e-01 0.0000e+00 -1.0000e+00
       13  1    1    2    0    0 +5.8278870961e+01 +4.8830851847e+01 -1.0369061805e+02 1.2857929198e+02 1.0566000000e-01 0.0000e+00 1.0000e+00
    10002  1    1    2    0    0 -2.8501454429e+01 -1.1449219469e+02 +8.0407513072e+00 1.5487236433e+02 1.0000000000e+02 0.0000e+00 0.0000e+00
   -10002  1    1    2    0    0 +8.2482359530e+00 +4.8356796532e+01 -1.9693522614e+02 2.2625184300e+02 1.0000000000e+02 0.0000e+00 0.0000e+00
<mgrwt>
<rscale>  0 0.45941661E+03</rscale>
<asrwt>0</asrwt>
<pdfrwt beam="1">  1        4 0.30204310E-01 0.45941661E+03</pdfrwt>
<pdfrwt beam="2">  1       -4 0.10918538E+00 0.45941661E+03</pdfrwt>
<totfact> 0.13762415E+01</totfact>
</mgrwt>
</event>
<event>
 6      1 +2.6141198e-09 4.24450500e+02 7.81860800e-03 1.03562700e-01
       -4 -1    0    0    0  501 -0.0000000000e+00 +0.0000000000e+00 +1.2692064952e+02 1.2692700333e+02 1.2700000000e+00 0.0000e+00 -1.0000e+00
        4 -1    0    0  501    0 +0.0000000000e+00 -0.0000000000e+00 -3.5484749899e+02 3.5484977165e+02 1.2700000000e+00 0.0000e+00 -1.0000e+00
      -13  1    1    2    0    0 +1.6678600430e+01 +2.4315052398e+01 -9.6365152431e+00 3.1020494443e+01 1.0566000000e-01 0.0000e+00 -1.0000e+00
       13  1    1    2    0    0 +1.0611633672e+01 -8.4809726475e+01 -2.8474134654e+01 9.0089311144e+01 1.0566000000e-01 0.0000e+00 1.0000e+00
    10002  1    1    2    0    0 -9.1855856930e+01 +6.1266964399e+00 -1.8519806254e+02 2.2972452466e+02 1.0000000000e+02 0.0000e+00 0.0000e+00
   -10002  1    1    2    0    0 +6.4565622828e+01 +5.4367977637e+01 -4.6181370383e+00 1.3094244474e+02 1.0000000000e+02 0.0000e+00 0.0000e+00
<mgrwt>
<rscale>  0 0.42445048E+03</rscale>
<asrwt>0</asrwt>
<pdfrwt beam="1">  1        4 0.88712951E-01 0.42445048E+03</pdfrwt>
<pdfrwt beam="2">  1       -4 0.31731241E-01 0.42445048E+03</pdfrwt>
<totfact> 0.20337731E+01</totfact>
</mgrwt>
</event>
<event>
 6      1 +2.6141198e-09 4.43981000e+02 7.81860800e-03 1.02953200e-01
        4 -1    0    0  501    0 +0.0000000000e+00 +0.0000000000e+00 +9.4167380548e+01 9.4175944165e+01 1.2700000000e+00 0.0000e+00 -1.0000e+00
       -4 -1    0    0    0  501 -0.0000000000e+00 -0.0000000000e+00 -5.2328793558e+02 5.2328947670e+02 1.2700000000e+00 0.0000e+00 -1.0000e+00
      -13  1    1    2    0    0 -2.3538201531e+01 +2.6924076905e+00 +3.1294501768e+00 2.3897711458e+01 1.0566000000e-01 0.0000e+00 1.0000e+00
       13  1    1    2    0    0 -2.5311686275e+01 -3.4221885956e+01 -1.7786640330e+02 1.8288872991e+02 1.0566000000e-01 0.0000e+00 -1.0000e+00
    10002  1    1    2    0    0 -3.0536534456e+01 -8.2170563899e+01 -4.5063234152e+01 1.4041074240e+02 1.0000000000e+02 0.0000e+00 0.0000e+00
   -10002  1    1    2    0    0 +7.9386422262e+01 +1.1370004216e+02 -2.0932036775e+02 2.7026823710e+02 1.0000000000e+02 0.0000e+00 0.0000e+00
<mgrwt>
<rscale>  0 0.44398096E+03</rscale>
<asrwt>0</asrwt>
<pdfrwt beam="1">  1        4 0.23543110E-01 0.44398096E+03</pdfrwt>
<pdfrwt beam="2">  1       -4 0.13082324E+00 0.44398096E+03</pdfrwt>
<totfact> 0.14118508E+01</totfact>
</mgrwt>
</event>
<event>
 6      1 +2.6141198e-09 3.01485000e+02 7.81860800e-03 1.08450100e-01
       -4 -1    0    0    0  501 -0.0000000000e+00 +0.0000000000e+00 +1.0949502989e+02 1.0950239482e+02 1.2700000000e+00 0.0000e+00 -1.0000e+00
        4 -1    0    0  501    0 +0.0000000000e+00 -0.0000000000e+00 -2.0751183653e+02 2.0751572278e+02 1.2700000000e+00 0.0000e+00 -1.0000e+00
      -13  1    1    2    0    0 -3.0318460241e+01 +2.3694785334e+01 -3.9374090285e+01 5.5054355261e+01 1.0566000000e-01 0.0000e+00 -1.0000e+00
       13  1    1    2    0    0 +2.5487075090e+01 -2.4075239794e+01 -2.0123009118e+01 4.0424680924e+01 1.0566000000e-01 0.0000e+00 1.0000e+00
    10002  1    1    2    0    0 +3.4339142308e+01 +2.7125664396e+01 -6.9967180024e+00 1.0937976242e+02 1.0000000000e+02 0.0000e+00 0.0000e+00
   -10002  1    1    2    0    0 -2.9507757158e+01 -2.6745209936e+01 -3.1522989237e+01 1.1215931900e+02 1.0000000000e+02 0.0000e+00 0.0000e+00
<mgrwt>
<rscale>  0 0.30148498E+03</rscale>
<asrwt>0</asrwt>
<pdfrwt beam="1">  1        4 0.51879365E-01 0.30148498E+03</pdfrwt>
<pdfrwt beam="2">  1       -4 0.27375164E-01 0.30148498E+03</pdfrwt>
<totfact> 0.84826704E+01</totfact>
</mgrwt>
</event>
<event>
 6      1 +2.6141198e-09 5.18344200e+02 7.81860800e-03 1.00909900e-01
       -4 -1    0    0    0  501 -0.0000000000e+00 +0.0000000000e+00 +3.6232097671e+02 3.6232320249e+02 1.2700000000e+00 0.0000e+00 -1.0000e+00
        4 -1    0    0  501    0 +0.0000000000e+00 -0.0000000000e+00 -1.8538362269e+02 1.8538797281e+02 1.2700000000e+00 0.0000e+00 -1.0000e+00
      -13  1    1    2    0    0 +7.4914009121e-01 +9.1862445328e+01 -3.3186085084e+01 9.7675982103e+01 1.0566000000e-01 0.0000e+00 -1.0000e+00
       13  1    1    2    0    0 -2.8512105725e+01 -1.3132307809e+01 -5.0189819987e+01 5.9198199936e+01 1.0566000000e-01 0.0000e+00 1.0000e+00
    10002  1    1    2    0    0 +7.6547972762e+01 -8.3767051533e+01 +6.2156649477e+01 1.6352357668e+02 1.0000000000e+02 0.0000e+00 0.0000e+00
   -10002  1    1    2    0    0 -4.8785007128e+01 +5.0369140134e+00 +1.9815660961e+02 2.2731341658e+02 1.0000000000e+02 0.0000e+00 0.0000e+00
<mgrwt>
<rscale>  0 0.51834419E+03</rscale>
<asrwt>0</asrwt>
<pdfrwt beam="1">  1        4 0.46346728E-01 0.51834419E+03</pdfrwt>
<pdfrwt beam="2">  1       -4 0.90581066E-01 0.51834419E+03</pdfrwt>
<totfact> 0.91808013E+00</totfact>
</mgrwt>
</event>
<event>
 6      1 +2.6141198e-09 3.67409100e+02 7.81860800e-03 1.05568800e-01
       -4 -1    0    0    0  501 -0.0000000000e+00 +0.0000000000e+00 +2.8655106029e+02 2.8655387461e+02 1.2700000000e+00 0.0000e+00 -1.0000e+00
        4 -1    0    0  501    0 +0.0000000000e+00 -0.0000000000e+00 -1.1776406304e+02 1.1777091086e+02 1.2700000000e+00 0.0000e+00 -1.0000e+00
      -13  1    1    2    0    0 -1.2283480824e+01 -1.0083673846e+01 -1.9014687448e+01 2.4781724761e+01 1.0566000000e-01 0.0000e+00 1.0000e+00
       13  1    1    2    0    0 +6.1140242819e+01 -2.7348263497e+00 +7.7258996314e+01 9.8562529607e+01 1.0566000000e-01 0.0000e+00 -1.0000e+00
    10002  1    1    2    0    0 +5.3706096666e+00 -5.5360129601e+01 +9.2493396058e+01 1.4713468562e+02 1.0000000000e+02 0.0000e+00 0.0000e+00
   -10002  1    1    2    0    0 -5.4227371661e+01 +6.8178629797e+01 +1.8049292323e+01 1.3384584548e+02 1.0000000000e+02 0.0000e+00 0.0000e+00
<mgrwt>
<rscale>  0 0.36740915E+03</rscale>
<asrwt>0</asrwt>
<pdfrwt beam="1">  1        4 0.29442224E-01 0.36740915E+03</pdfrwt>
<pdfrwt beam="2">  1       -4 0.71638972E-01 0.36740915E+03</pdfrwt>
<totfact> 0.37671717E+01</totfact>
</mgrwt>
</event>
<event>
 6      1 +2.6141198e-09 5.52355600e+02 7.81860800e-03 1.00095000e-01
       -4 -1    0    0    0  501 -0.0000000000e+00 +0.0000000000e+00 +8.2521468508e+02 8.2521566234e+02 1.2700000000e+00 0.0000e+00 1.0000e+00
        4 -1    0    0  501    0 +0.0000000000e+00 -0.0000000000e+00 -9.2424113351e+01 9.2432838476e+01 1.2700000000e+00 0.0000e+00 1.0000e+00
      -13  1    1    2    0    0 -1.9544920888e+01 -3.5574734599e+01 +1.6164506509e+01 4.3690595201e+01 1.0566000000e-01 0.0000e+00 -1.0000e+00
       13  1    1    2    0    0 -4.4938402766e+01 +1.4605328669e+01 +1.4824472261e+02 1.5559333088e+02 1.0566000000e-01 0.0000e+00 1.0000e+00
    10002  1    1    2    0    0 +2.7239338124e+01 +1.2202675068e+02 +3.3380695108e+01 1.6354442891e+02 1.0000000000e+02 0.0000e+00 0.0000e+00
   -10002  1    1    2    0    0 +3.7243985530e+01 -1.0105734475e+02 +5.3500064750e+02 5.5482014583e+02 1.0000000000e+02 0.0000e+00 0.0000e+00
<mgrwt>
<rscale>  0 0.55235564E+03</rscale>
<asrwt>0</asrwt>
<pdfrwt beam="1">  1        4 0.23107241E-01 0.55235564E+03</pdfrwt>
<pdfrwt beam="2">  1       -4 0.20630488E+00 0.55235564E+03</pdfrwt>
<totfact> 0.42134551E+00</totfact>
</mgrwt>
</event>
<event>
 6      1 +2.6141198e-09 3.97559500e+02 7.81860800e-03 1.04462800e-01
       -4 -1    0    0    0  501 -0.0000000000e+00 +0.0000000000e+00 +1.8204132308e+02 1.8204575306e+02 1.2700000000e+00 0.0000e+00 -1.0000e+00
        4 -1    0    0  501    0 +0.0000000000e+00 -0.0000000000e+00 -2.1704837230e+02 2.1705208780e+02 1.2700000000e+00 0.0000e+00 -1.0000e+00
      -13  1    1    2    0    0 +2.6147699480e+01 +7.8455245609e+01 -4.8590492835e+01 9.5916499674e+01 1.0566000000e-01 0.0000e+00 -1.0000e+00
       13  1    1    2    0    0 +2.4096571567e+01 +2.7653146279e+01 +4.0612978023e+01 5.4724458959e+01 1.0566000000e-01 0.0000e+00 1.0000e+00
    10002  1    1    2    0    0 -5.3409398542e+01 -3.8013067952e+01 +1.4626940193e+01 1.2046370643e+02 1.0000000000e+02 0.0000e+00 0.0000e+00
   -10002  1    1    2    0    0 +3.1651274953e+00 -6.8095323937e+01 -4.1656474606e+01 1.2799317580e+02 1.0000000000e+02 0.0000e+00 0.0000e+00
<mgrwt>
<rscale>  0 0.39755955E+03</rscale>
<asrwt>0</asrwt>
<pdfrwt beam="1">  1        4 0.54263111E-01 0.39755955E+03</pdfrwt>
<pdfrwt beam="2">  1       -4 0.45511349E-01 0.39755955E+03</pdfrwt>
<totfact> 0.29123460E+01</totfact>
</mgrwt>
</event>
<event>
 6      1 +2.6141198e-09 6.00624000e+02 7.81860800e-03 9.90411200e-02
       -4 -1    0    0    0  501 -0.0000000000e+00 +0.0000000000e+00 +5.0277391827e+02 5.0277552227e+02 1.2700000000e+00 0.0000e+00 1.0000e+00
        4 -1    0    0  501    0 +0.0000000000e+00 -0.0000000000e+00 -1.7937527951e+02 1.7937977533e+02 1.2700000000e+00 0.0000e+00 1.0000e+00
      -13  1    1    2    0    0 +1.2716713942e+02 -3.6021526244e+01 +6.1142132093e+01 1.4562761820e+02 1.0566000000e-01 0.0000e+00 1.0000e+00
       13  1    1    2    0    0 -1.7429009704e+01 -1.9205784476e+01 +5.9872163998e+00 2.6617484119e+01 1.0566000000e-01 0.0000e+00 -1.0000e+00
    10002  1    1    2    0    0 -9.6949897304e+01 -1.0365143813e+02 +2.7026468403e+02 3.2122562576e+02 1.0000000000e+02 0.0000e+00 0.0000e+00
   -10002  1    1    2    0    0 -1.2788232417e+01 +1.5887874885e+02 -1.3995393762e+01 1.8868456951e+02 1.0000000000e+02 0.0000e+00 0.0000e+00
<mgrwt>
<rscale>  0 0.60062398E+03</rscale>
<asrwt>0</asrwt>
<pdfrwt beam="1">  1        4 0.44844583E-01 0.60062398E+03</pdfrwt>
<pdfrwt beam="2">  1       -4 0.12569424E+00 0.60062398E+03</pdfrwt>
<totfact> 0.44726198E+00</totfact>
</mgrwt>
</event>
<event>
 6      1 +2.6141198e-09 4.52505800e+02 7.81860800e-03 1.02697700e-01
        4 -1    0    0  501    0 +0.0000000000e+00 +0.0000000000e+00 +7.5450835801e+01 7.5461523461e+01 1.2700000000e+00 0.0000e+00 -1.0000e+00
       -4 -1    0    0    0  501 -0.0000000000e+00 -0.0000000000e+00 -6.7840070827e+02 6.7840189702e+02 1.2700000000e+00 0.0000e+00 -1.0000e+00
      -13  1    1    2    0    0 -3.8855520897e+01 -1.7883047443e+01 -1.1474375658e+01 4.4285746587e+01 1.0566000000e-01 0.0000e+00 -1.0000e+00
       13  1    1    2    0    0 +5.0664927665e+00 -6.9825929329e+01 -1.6360361240e+02 1.7795359763e+02 1.0566000000e-01 0.0000e+00 1.0000e+00
    10002  1    1    2    0    0 +2.3719644175e+01 +1.4925643649e+02 -1.7169578426e+02 2.4963883449e+02 1.0000000000e+02 0.0000e+00 0.0000e+00
   -10002  1    1    2    0    0 +1.0069383955e+01 -6.1547459713e+01 -2.5617610015e+02 2.8198524178e+02 1.0000000000e+02 0.0000e+00 0.0000e+00
<mgrwt>
<rscale>  0 0.45250581E+03</rscale>
<asrwt>0</asrwt>
<pdfrwt beam="1">  1        4 0.18864196E-01 0.45250581E+03</pdfrwt>
<pdfrwt beam="2">  1       -4 0.16960164E+00 0.45250581E+03</pdfrwt>
<totfact> 0.10747801E+01</totfact>
</mgrwt>
</event>
<event>
 6      1 +2.6141198e-09 3.82594300e+02 7.81860800e-03 1.04997900e-01
       -4 -1    0    0    0  501 -0.0000000000e+00 +0.0000000000e+00 +1.8451760719e+02 1.8452197772e+02 1.2700000000e+00 0.0000e+00 -1.0000e+00
        4 -1    0    0  501    0 +0.0000000000e+00 -0.0000000000e+00 -1.9831706308e+02 1.9832112951e+02 1.2700000000e+00 0.0000e+00 -1.0000e+00
      -13  1    1    2    0    0 -3.9883798499e+01 -7.0188337892e+00 -1.8273709089e+01 4.4428830936e+01 1.0566000000e-01 0.0000e+00 1.0000e+00
       13  1    1    2    0    0 +2.3192286493e+01 -2.3079278062e+01 +4.8887759128e+01 5.8826519404e+01 1.0566000000e-01 0.0000e+00 -1.0000e+00
    10002  1    1    2    0    0 +5.6055264509e+00 -3.0181324915e+01 -1.0445201628e+02 1.4782610732e+02 1.0000000000e+02 0.0000e+00 0.0000e+00
   -10002  1    1    2    0    0 +1.1085985554e+01 +6.0279436765e+01 +6.0038510349e+01 1.3176164957e+02 1.0000000000e+02 0.0000e+00 0.0000e+00
<mgrwt>
<rscale>  0 0.38259433E+03</rscale>
<asrwt>0</asrwt>
<pdfrwt beam="1">  1        4 0.49580320E-01 0.38259433E+03</pdfrwt>
<pdfrwt beam="2">  1       -4 0.46130456E-01 0.38259433E+03</pdfrwt>
<totfact> 0.34104843E+01</totfact>
</mgrwt>
</event>
<event>
 6      1 +2.6141198e-09 6.60856500e+02 7.81860800e-03 9.78661800e-02
        4 -1    0    0  501    0 +0.0000000000e+00 +0.0000000000e+00 +3.7540848211e+02 3.7541063030e+02 1.2700000000e+00 0.0000e+00 -1.0000e+00
       -4 -1    0    0    0  501 -0.0000000000e+00 -0.0000000000e+00 -2.9083304296e+02 2.9083581585e+02 1.2700000000e+00 0.0000e+00 -1.0000e+00
      -13  1    1    2    0    0 +2.8206453317e+01 -3.4905987678e+01 -4.1289278503e+01 6.0982355381e+01 1.0566000000e-01 0.0000e+00 -1.0000e+00
       13  1    1    2    0    0 -1.7140059385e+01 +4.2854998312e+01 -7.6328205179e+01 8.9198310443e+01 1.0566000000e-01 0.0000e+00 1.0000e+00
    10002  1    1    2    0    0 +9.0599421208e+01 +1.7890103499e+02 +3.3108484778e+01 2.2651712343e+02 1.0000000000e+02 0.0000e+00 0.0000e+00
   -10002  1    1    2    0    0 -1.0166581514e+02 -1.8685004562e+02 +1.6908443805e+02 2.8954865689e+02 1.0000000000e+02 0.0000e+00 0.0000e+00
<mgrwt>
<rscale>  0 0.66085651E+03</rscale>
<asrwt>0</asrwt>
<pdfrwt beam="1">  1        4 0.93852735E-01 0.66085651E+03</pdfrwt>
<pdfrwt beam="2">  1       -4 0.72708876E-01 0.66085651E+03</pdfrwt>
<totfact> 0.32391133E+00</totfact>
</mgrwt>
</event>
<event>
 6      1 +2.6141198e-09 4.32407800e+02 7.81860800e-03 1.03310200e-01
        4 -1    0    0  501    0 +0.0000000000e+00 +0.0000000000e+00 +2.2990878565e+02 2.2991229332e+02 1.2700000000e+00 0.0000e+00 -1.0000e+00
       -4 -1    0    0    0  501 -0.0000000000e+00 -0.0000000000e+00 -2.0330889955e+02 2.0331286613e+02 1.2700000000e+00 0.0000e+00 -1.0000e+00
      -13  1    1    2    0    0 -4.8683987034e+01 +3.7458815773e+01 +6.4421645683e+01 8.9013780221e+01 1.0566000000e-01 0.0000e+00 1.0000e+00
       13  1    1    2    0    0 -1.3278998084e+01 -8.3096413470e-01 -5.6255287278e+01 5.7807359413e+01 1.0566000000e-01 0.0000e+00 -1.0000e+00
    10002  1    1    2    0    0 +7.2218230617e+01 -9.8678787717e+01 -2.6194051447e+01 1.6012215434e+02 1.0000000000e+02 0.0000e+00 0.0000e+00
   -10002  1    1    2    0    0 -1.0255245499e+01 +6.2050936080e+01 +4.4627579141e+01 1.2628186548e+02 1.0000000000e+02 0.0000e+00 0.0000e+00
<mgrwt>
<rscale>  0 0.43240778E+03</rscale>
<asrwt>0</asrwt>
<pdfrwt beam="1">  1        4 0.57478131E-01 0.43240778E+03</pdfrwt>
<pdfrwt beam="2">  1       -4 0.50828159E-01 0.43240778E+03</pdfrwt>
<totfact> 0.20639104E+01</totfact>
</mgrwt>
</event>
<event>
 6      1 +2.6141198e-09 4.13825400e+02 7.81860800e-03 1.03909500e-01
       -4 -1    0    0    0  501 -0.0000000000e+00 +0.0000000000e+00 +2.1417985894e+02 2.1418362420e+02 1.2700000000e+00 0.0000e+00 -1.0000e+00
        4 -1    0    0  501    0 +0.0000000000e+00 -0.0000000000e+00 -1.9988457828e+02 1.9988861282e+02 1.2700000000e+00 0.0000e+00 -1.0000e+00
      -13  1    1    2    0    0 +4.0281121498e+01 +3.3696691923e+01 -3.4690090841e+01 6.2940045776e+01 1.0566000000e-01 0.0000e+00 -1.0000e+00
       13  1    1    2    0    0 +1.3321531259e+01 -1.5463054892e+01 +4.3110652053e+01 4.7698100027e+01 1.0566000000e-01 0.0000e+00 1.0000e+00
    10002  1    1    2    0    0 -3.7066896537e+01 -1.0144324799e+01 -1.0707006508e+02 1.5146240781e+02 1.0000000000e+02 0.0000e+00 0.0000e+00
   -10002  1    1    2    0    0 -1.6535756220e+01 -8.0893122312e+00 +1.1294478452e+02 1.5197168340e+02 1.0000000000e+02 0.0000e+00 0.0000e+00
<mgrwt>
<rscale>  0 0.41382540E+03</rscale>
<asrwt>0</asrwt>
<pdfrwt beam="1">  1        4 0.49972120E-01 0.41382540E+03</pdfrwt>
<pdfrwt beam="2">  1       -4 0.53545940E-01 0.41382540E+03</pdfrwt>
<totfact> 0.24769868E+01</totfact>
</mgrwt>
</event>
<event>
 6      1 +2.6141198e-09 4.06705600e+02 7.81860800e-03 1.04148200e-01
       -4 -1    0    0    0  501 -0.0000000000e+00 +0.0000000000e+00 +1.1670476247e+02 1.1671167244e+02 1.2700000000e+00 0.0000e+00 -1.0000e+00
        4 -1    0    0  501    0 +0.0000000000e+00 -0.0000000000e+00 -3.5431448450e+02 3.5431676058e+02 1.2700000000e+00 0.0000e+00 -1.0000e+00
      -13  1    1    2    0    0 -4.4727962614e+01 -4.1107853710e+00 +2.2698222131e+01 5.0326033500e+01 1.0566000000e-01 0.0000e+00 1.0000e+00
       13  1    1    2    0    0 -5.1692053530e+01 -1.0509586709e+01 -8.6834605735e+01 1.0160108133e+02 1.0566000000e-01 0.0000e+00 -1.0000e+00
    10002  1    1    2    0    0 +2.4925427038e+01 -6.0683834191e+01 -5.1308406556e+01 1.3013976037e+02 1.0000000000e+02 0.0000e+00 0.0000e+00
   -10002  1    1    2    0    0 +7.1494589105e+01 +7.5304206271e+01 -1.2216493187e+02 1.8896155781e+02 1.0000000000e+02 0.0000e+00 0.0000e+00
<mgrwt>
<rscale>  0 0.40670555E+03</rscale>
<asrwt>0</asrwt>
<pdfrwt beam="1">  1        4 0.88579767E-01 0.40670555E+03</pdfrwt>
<pdfrwt beam="2">  1       -4 0.29177340E-01 0.40670555E+03</pdfrwt>
<totfact> 0.23933366E+01</totfact>
</mgrwt>
</event>
<event>
 6      1 +2.6141198e-09 4.37392600e+02 7.81860800e-03 1.03155000e-01
       -4 -1    0    0    0  501 -0.0000000000e+00 +0.0000000000e+00 +1.9011057887e+02 1.9011482083e+02 1.2700000000e+00 0.0000e+00 -1.0000e+00
        4 -1    0    0  501    0 +0.0000000000e+00 -0.0000000000e+00 -2.5157163701e+02 2.5157484264e+02 1.2700000000e+00 0.0000e+00 -1.0000e+00
      -13  1    1    2    0    0 +1.1317226186e+01 -7.7859462168e+00 +3.9968081409e+01 4.2262977446e+01 1.0566000000e-01 0.0000e+00 1.0000e+00
       13  1    1    2    0    0 +1.2070570527e+01 -7.6102705011e+01 -4.3494673874e+01 8.8482304459e+01 1.0566000000e-01 0.0000e+00 -1.0000e+00
    10002  1    1    2    0    0 -1.5553812814e+01 -2.8990277649e+01 +5.8341456421e+01 1.2035814401e+02 1.0000000000e+02 0.0000e+00 0.0000e+00
   -10002  1    1    2    0    0 -7.8339838989e+00 +1.1287892888e+02 -1.1627592210e+02 1.9058623756e+02 1.0000000000e+02 0.0000e+00 0.0000e+00
<mgrwt>
<rscale>  0 0.43739261E+03</rscale>
<asrwt>0</asrwt>
<pdfrwt beam="1">  1        4 0.62893840E-01 0.43739261E+03</pdfrwt>
<pdfrwt beam="2">  1       -4 0.47528576E-01 0.43739261E+03</pdfrwt>
<totfact> 0.19567830E+01</totfact>
</mgrwt>
</event>
<event>
 6      1 +2.6141198e-09 4.99414300e+02 7.81860800e-03 1.01393200e-01
        4 -1    0    0  501    0 +0.0000000000e+00 +0.0000000000e+00 +3.2542163361e+02 3.2542411177e+02 1.2700000000e+00 0.0000e+00 1.0000e+00
       -4 -1    0    0    0  501 -0.0000000000e+00 -0.0000000000e+00 -1.9160353492e+02 1.9160774383e+02 1.2700000000e+00 0.0000e+00 1.0000e+00
      -13  1    1    2    0    0 +5.3569889140e+00 +4.4478303368e+01 -6.1966322095e+00 4.5226388486e+01 1.0566000000e-01 0.0000e+00 -1.0000e+00
       13  1    1    2    0    0 +1.2667996157e+00 -4.7333431193e+01 +3.2949431796e+01 5.7686521038e+01 1.0566000000e-01 0.0000e+00 1.0000e+00
    10002  1    1    2    0    0 +6.1036524422e+01 +8.1604344502e+01 +1.9768356722e+02 2.4385142834e+02 1.0000000000e+02 0.0000e+00 0.0000e+00
   -10002  1    1    2    0    0 -6.7660312952e+01 -7.8749216677e+01 -9.0618268122e+01 1.7026751773e+02 1.0000000000e+02 0.0000e+00 0.0000e+00
<mgrwt>
<rscale>  0 0.49941431E+03</rscale>
<asrwt>0</asrwt>
<pdfrwt beam="1">  1        4 0.81356244E-01 0.49941431E+03</pdfrwt>
<pdfrwt beam="2">  1       -4 0.47901720E-01 0.49941431E+03</pdfrwt>
<totfact> 0.10960402E+01</totfact>
</mgrwt>
</event>
<event>
 6      1 +2.6141198e-09 3.68892300e+02 7.81860800e-03 1.05511700e-01
        4 -1    0    0  501    0 +0.0000000000e+00 +0.0000000000e+00 +1.2565991708e+02 1.2566633463e+02 1.2700000000e+00 0.0000e+00 1.0000e+00
       -4 -1    0    0    0  501 -0.0000000000e+00 -0.0000000000e+00 -2.7071887400e+02 2.7072185291e+02 1.2700000000e+00 0.0000e+00 1.0000e+00
      -13  1    1    2    0    0 -3.8173631807e+01 +7.6012939375e+01 +1.1363850938e+01 8.5815740922e+01 1.0566000000e-01 0.0000e+00 1.0000e+00
       13  1    1    2    0    0 -2.4880519145e+01 -1.7944584256e+01 -2.6713744848e+01 4.0677803098e+01 1.0566000000e-01 0.0000e+00 -1.0000e+00
    10002  1    1    2    0    0 +7.2550819334e+01 -5.1825448195e+01 -5.6306199300e+01 1.4532682666e+02 1.0000000000e+02 0.0000e+00 0.0000e+00
   -10002  1    1    2    0    0 -9.4966683827e+00 -6.2429069245e+00 -7.3402863714e+01 1.2456781687e+02 1.0000000000e+02 0.0000e+00 0.0000e+00
<mgrwt>
<rscale>  0 0.36889225E+03</rscale>
<asrwt>0</asrwt>
<pdfrwt beam="1">  1        4 0.31416154E-01 0.36889225E+03</pdfrwt>
<pdfrwt beam="2">  1       -4 0.67680892E-01 0.36889225E+03</pdfrwt>
<totfact> 0.37675716E+01</totfact>
</mgrwt>
</event>
<event>
 6      1 +2.6141198e-09 3.97471500e+02 7.81860800e-03 1.04465900e-01
       -4 -1    0    0    0  501 -0.0000000000e+00 +0.0000000000e+00 +6.2919844933e+02 6.2919973104e+02 1.2700000000e+00 0.0000e+00 1.0000e+00
        4 -1    0    0  501    0 +0.0000000000e+00 -0.0000000000e+00 -6.2764005773e+01 6.2776853383e+01 1.2700000000e+00 0.0000e+00 1.0000e+00
      -13  1    1    2    0    0 +8.0570054489e+01 +3.5876803261e+01 +9.2955540254e+01 1.2813829373e+02 1.0566000000e-01 0.0000e+00 1.0000e+00
       13  1    1    2    0    0 -2.0044268515e+01 -2.2396866458e+01 +4.6590720061e+01 5.5444555074e+01 1.0566000000e-01 0.0000e+00 -1.0000e+00
    10002  1    1    2    0    0 -2.5774887562e+01 -6.8845347783e+01 +9.6946652777e+01 1.5748866697e+02 1.0000000000e+02 0.0000e+00 0.0000e+00
   -10002  1    1    2    0    0 -3.4750898412e+01 +5.5365410980e+01 +3.2994153046e+02 3.5090506864e+02 1.0000000000e+02 0.0000e+00 0.0000e+00
<mgrwt>
<rscale>  0 0.39747153E+03</rscale>
<asrwt>0</asrwt>
<pdfrwt beam="1">  1        4 0.15692768E-01 0.39747153E+03</pdfrwt>
<pdfrwt beam="2">  1       -4 0.15730138E+00 0.39747153E+03</pdfrwt>
<totfact> 0.18267556E+01</totfact>
</mgrwt>
</event>
<event>
 6      1 +2.6141198e-09 3.50955200e+02 7.81860800e-03 1.06222400e-01
        4 -1    0    0  501    0 +0.0000000000e+00 +0.0000000000e+00 +3.0314038968e+02 3.0314304999e+02 1.2700000000e+00 0.0000e+00 -1.0000e+00
       -4 -1    0    0    0  501 -0.0000000000e+00 -0.0000000000e+00 -1.0157090073e+02 1.0157884019e+02 1.2700000000e+00 0.0000e+00 -1.0000e+00
      -13  1    1    2    0    0 -3.0792611010e+01 -4.6479879886e+01 +5.2976579076e+00 5.6005718194e+01 1.0566000000e-01 0.0000e+00 1.0000e+00
       13  1    1    2    0    0 -1.2576230947e+01 -6.2870863237e+00 +5.9305074867e+01 6.0949094401e+01 1.0566000000e-01 0.0000e+00 -1.0000e+00
    10002  1    1    2    0    0 +7.5745011520e+01 +1.8126018967e+01 +1.2228919437e+02 1.7612639324e+02 1.0000000000e+02 0.0000e+00 0.0000e+00
   -10002  1    1    2    0    0 -3.2376169562e+01 +3.4640947243e+01 +1.4677561801e+01 1.1164068435e+02 1.0000000000e+02 0.0000e+00 0.0000e+00
<mgrwt>
<rscale>  0 0.35095520E+03</rscale>
<asrwt>0</asrwt>
<pdfrwt beam="1">  1        4 0.75786422E-01 0.35095520E+03</pdfrwt>
<pdfrwt beam="2">  1       -4 0.25394050E-01 0.35095520E+03</pdfrwt>
<totfact> 0.43873367E+01</totfact>
</mgrwt>
</event>
<event>
 6      1 +2.6141198e-09 4.02198800e+02 7.81860800e-03 1.04302100e-01
        4 -1    0    0  501    0 +0.0000000000e+00 +0.0000000000e+00 +9.3278342497e+01 9.3286987726e+01 1.2700000000e+00 0.0000e+00 1.0000e+00
       -4 -1    0    0    0  501 -0.0000000000e+00 -0.0000000000e+00 -4.3352179976e+02 4.3352365999e+02 1.2700000000e+00 0.0000e+00 1.0000e+00
      -13  1    1    2    0    0 -6.7460992617e+00 -2.6937662292e+01 -5.5728893262e+01 6.2264502032e+01 1.0566000000e-01 0.0000e+00 -1.0000e+00
       13  1    1    2    0    0 +1.7742165884e+00 +8.8818725448e+01 -8.9212996768e+01 1.2590029305e+02 1.0566000000e-01 0.0000e+00 1.0000e+00
    10002  1    1    2    0    0 -6.2289657538e+01 -5.6662567951e+01 -3.0204937045e+01 1.3417520734e+02 1.0000000000e+02 0.0000e+00 0.0000e+00
   -10002  1    1    2    0    0 +6.7261540211e+01 -5.2184952056e+00 -1.6509663019e+02 2.0447064529e+02 1.0000000000e+02 0.0000e+00 0.0000e+00
<mgrwt>
<rscale>  0 0.40219877E+03</rscale>
<asrwt>0</asrwt>
<pdfrwt beam="1">  1        4 0.23320900E-01 0.40219877E+03</pdfrwt>
<pdfrwt beam="2">  1       -4 0.10838176E+00 0.40219877E+03</pdfrwt>
<totfact> 0.22715898E+01</totfact>
</mgrwt>
</event>
<event>
 6      1 +2.6141198e-09 6.78239000e+02 7.81860800e-03 9.75518700e-02
        4 -1    0    0  501    0 +0.0000000000e+00 +0.0000000000e+00 +5.2733146718e+02 5.2733299648e+02 1.2700000000e+00 0.0000e+00 -1.0000e+00
       -4 -1    0    0    0  501 -0.0000000000e+00 -0.0000000000e+00 -2.1807933297e+02 2.1808303091e+02 1.2700000000e+00 0.0000e+00 -1.0000e+00
      -13  1    1    2    0    0 +2.0415182166e+01 -2.2913369860e+01 +5.5031858025e+01 6.3010465345e+01 1.0566000000e-01 0.0000e+00 -1.0000e+00
       13  1    1    2    0    0 -8.2570357206e+01 +3.4808995556e+00 +1.5065933605e+02 1.7183779344e+02 1.0566000000e-01 0.0000e+00 1.0000e+00
    10002  1    1    2    0    0 +1.5231391831e+02 -1.6426246149e+02 +1.3602972555e+02 2.8050984332e+02 1.0000000000e+02 0.0000e+00 0.0000e+00
   -10002  1    1    2    0    0 -9.0158743275e+01 +1.8369493180e+02 -3.2468785419e+01 2.3005792528e+02 1.0000000000e+02 0.0000e+00 0.0000e+00
<mgrwt>
<rscale>  0 0.67823902E+03</rscale>
<asrwt>0</asrwt>
<pdfrwt beam="1">  1        4 0.13183352E+00 0.67823902E+03</pdfrwt>
<pdfrwt beam="2">  1       -4 0.54520487E-01 0.67823902E+03</pdfrwt>
<totfact> 0.26399402E+00</totfact>
</mgrwt>
</event>
<event>
 6      1 +2.6141198e-09 4.15604000e+02 7.81860800e-03 1.03850700e-01
       -4 -1    0    0    0  501 -0.0000000000e+00 +0.0000000000e+00 +2.1605043412e+02 2.1605416678e+02 1.2700000000e+00 0.0000e+00 -1.0000e+00
        4 -1    0    0  501    0 +0.0000000000e+00 -0.0000000000e+00 -1.9986099152e+02 1.9986502653e+02 1.2700000000e+00 0.0000e+00 -1.0000e+00
      -13  1    1    2    0    0 +8.1552878786e+01 -4.8934575670e+01 -2.7340015428e+01 9.8959346915e+01 1.0566000000e-01 0.0000e+00 -1.0000e+00
       13  1    1    2    0    0 +1.5342965151e+01 +2.3561374850e+01 +3.1762806333e+01 4.2419712335e+01 1.0566000000e-01 0.0000e+00 1.0000e+00
    10002  1    1    2    0    0 +8.2215412714e+00 -4.8373769507e+01 +9.1839428467e+00 1.1176743767e+02 1.0000000000e+02 0.0000e+00 0.0000e+00
   -10002  1    1    2    0    0 -1.0511738521e+02 +7.3746970327e+01 +2.5827088466e+00 1.6277269639e+02 1.0000000000e+02 0.0000e+00 0.0000e+00
<mgrwt>
<rscale>  0 0.41560399E+03</rscale>
<asrwt>0</asrwt>
<pdfrwt beam="1">  1        4 0.49966219E-01 0.41560399E+03</pdfrwt>
<pdfrwt beam="2">  1       -4 0.54013579E-01 0.41560399E+03</pdfrwt>
<totfact> 0.24333745E+01</totfact>
</mgrwt>
</event>
<event>
 6      1 +2.6141198e-09 4.25392800e+02 7.81860800e-03 1.03532500e-01
       -4 -1    0    0    0  501 -0.0000000000e+00 +0.0000000000e+00 +9.2948654408e+01 9.2957330299e+01 1.2700000000e+00 0.0000e+00 -1.0000e+00
        4 -1    0    0  501    0 +0.0000000000e+00 -0.0000000000e+00 -4.8668548134e+02 4.8668713836e+02 1.2700000000e+00 0.0000e+00 -1.0000e+00
      -13  1    1    2    0    0 -1.2236582848e+01 +6.5041992695e+01 +1.3155402855e+01 6.7477926479e+01 1.0566000000e-01 0.0000e+00 -1.0000e+00
       13  1    1    2    0    0 -4.9111321873e+00 -2.5524604520e+01 -4.3085536996e+01 5.0318975720e+01 1.0566000000e-01 0.0000e+00 1.0000e+00
    10002  1    1    2    0    0 -4.8919997437e+01 -1.4375661604e+00 -3.0170577720e+02 3.2159230205e+02 1.0000000000e+02 0.0000e+00 0.0000e+00
   -10002  1    1    2    0    0 +6.6067712472e+01 -3.8079822015e+01 -6.2100915588e+01 1.4025526440e+02 1.0000000000e+02 0.0000e+00 0.0000e+00
<mgrwt>
<rscale>  0 0.42539278E+03</rscale>
<asrwt>0</asrwt>
<pdfrwt beam="1">  1        4 0.12167265E+00 0.42539278E+03</pdfrwt>
<pdfrwt beam="2">  1       -4 0.23238457E-01 0.42539278E+03</pdfrwt>
<totfact> 0.17306000E+01</totfact>
</mgrwt>
</event>
<event>
 6      1 +2.6141198e-09 4.53698100e+02 7.81860800e-03 1.02662500e-01
        4 -1    0    0  501    0 +0.0000000000e+00 +0.0000000000e+00 +8.3360752122e+02 8.3360848864e+02 1.2700000000e+00 0.0000e+00 1.0000e+00
       -4 -1    0    0    0  501 -0.0000000000e+00 -0.0000000000e+00 -6.1724751209e+01 6.1737815088e+01 1.2700000000e+00 0.0000e+00 1.0000e+00
      -13  1    1    2    0    0 -1.8935766386e+01 -1.1328096506e+01 +1.8398489564e+00 2.2142385312e+01 1.0566000000e-01 0.0000e+00 1.0000e+00
       13  1    1    2    0    0 +5.7694618211e+01 -3.0637416335e+01 +6.7624653633e+01 9.4023535315e+01 1.0566000000e-01 0.0000e+00 -1.0000e+00
    10002  1    1    2    0    0 -1.6506532241e+01 +4.0516962689e+01 +5.2293415664e+01 1.2103177762e+02 1.0000000000e+02 0.0000e+00 0.0000e+00
   -10002  1    1    2    0    0 -2.2252319583e+01 +1.4485501522e+00 +6.5012485176e+02 6.5814860548e+02 1.0000000000e+02 0.0000e+00 0.0000e+00
<mgrwt>
<rscale>  0 0.45369813E+03</rscale>
<asrwt>0</asrwt>
<pdfrwt beam="1">  1        4 0.20840363E+00 0.45369813E+03</pdfrwt>
<pdfrwt beam="2">  1       -4 0.15432942E-01 0.45369813E+03</pdfrwt>
<totfact> 0.85164198E+00</totfact>
</mgrwt>
</event>
<event>
 6      1 +2.6141198e-09 3.88180200e+02 7.81860800e-03 1.04795100e-01
       -4 -1    0    0    0  501 -0.0000000000e+00 +0.0000000000e+00 +5.1494507632e+01 5.1510166144e+01 1.2700000000e+00 0.0000e+00 1.0000e+00
        4 -1    0    0  501    0 +0.0000000000e+00 -0.0000000000e+00 -7.3142566285e+02 7.3142676542e+02 1.2700000000e+00 0.0000e+00 1.0000e+00
      -13  1    1    2    0    0 +2.6205270897e+01 +2.0770722685e+01 -8.7545229731e+00 3.4565763122e+01 1.0566000000e-01 0.0000e+00 1.0000e+00
       13  1    1    2    0    0 -4.6272303327e+01 -2.2225230169e+01 -1.0595017365e+02 1.1773078345e+02 1.0566000000e-01 0.0000e+00 -1.0000e+00
    10002  1    1    2    0    0 -3.3505970507e+01 +7.2208969200e+01 -3.8883149064e+02 4.0930027291e+02 1.0000000000e+02 0.0000e+00 0.0000e+00
   -10002  1    1    2    0    0 +5.3573002937e+01 -7.0754461716e+01 -1.7639496795e+02 2.2134011208e+02 1.0000000000e+02 0.0000e+00 0.0000e+00
<mgrwt>
<rscale>  0 0.38818019E+03</rscale>
<asrwt>0</asrwt>
<pdfrwt beam="1">  1        4 0.18285848E+00 0.38818019E+03</pdfrwt>
<pdfrwt beam="2">  1       -4 0.12875724E-01 0.38818019E+03</pdfrwt>
<totfact> 0.17121474E+01</totfact>
</mgrwt>
</event>
<event>
 6      1 +2.6141198e-09 6.49123500e+02 7.81860800e-03 9.80842500e-02
        4 -1    0    0  501    0 +0.0000000000e+00 +0.0000000000e+00 +1.2968589840e+03 1.2968596058e+03 1.2700000000e+00 0.0000e+00 -1.0000e+00
       -4 -1    0    0    0  501 -0.0000000000e+00 -0.0000000000e+00 -8.1221680924e+01 8.1231609316e+01 1.2700000000e+00 0.0000e+00 -1.0000e+00
      -13  1    1    2    0    0 +6.9313637811e+01 -4.5963138396e+01 +2.7909687994e+01 8.7726577078e+01 1.0566000000e-01 0.0000e+00 -1.0000e+00
       13  1    1    2    0    0 -1.9218218661e+01 -5.8205563493e+01 +7.3512601025e+01 9.5714895516e+01 1.0566000000e-01 0.0000e+00 1.0000e+00
    10002  1    1    2    0    0 -1.0550594644e+02 +1.7058829556e+02 +3.2716670374e+02 3.9657272139e+02 1.0000000000e+02 0.0000e+00 0.0000e+00
   -10002  1    1    2    0    0 +5.5410527293e+01 -6.6419593672e+01 +7.8704831028e+02 7.9807702114e+02 1.0000000000e+02 0.0000e+00 0.0000e+00
<mgrwt>
<rscale>  0 0.64912352E+03</rscale>
<asrwt>0</asrwt>
<pdfrwt beam="1">  1        4 0.32421607E+00 0.64912352E+03</pdfrwt>
<pdfrwt beam="2">  1       -4 0.20306739E-01 0.64912352E+03</pdfrwt>
<totfact> 0.10091669E+00</totfact>
</mgrwt>
</event>
<event>
 6      1 +2.6141198e-09 4.97242700e+02 7.81860800e-03 1.01450100e-01
       -4 -1    0    0    0  501 -0.0000000000e+00 +0.0000000000e+00 +9.0917380855e+02 9.0917469557e+02 1.2700000000e+00 0.0000e+00 1.0000e+00
        4 -1    0    0  501    0 +0.0000000000e+00 -0.0000000000e+00 -6.7980795311e+01 6.7992657185e+01 1.2700000000e+00 0.0000e+00 1.0000e+00
      -13  1    1    2    0    0 +7.5637030253e+01 +6.6615853530e+01 +3.1162818846e+02 3.2752216916e+02 1.0566000000e-01 0.0000e+00 1.0000e+00
       13  1    1    2    0    0 -1.4233900891e+01 +3.0269309350e+01 +2.8430296147e+01 4.3899065208e+01 1.0566000000e-01 0.0000e+00 -1.0000e+00
    10002  1    1    2    0    0 -4.6778869285e+01 -1.7861335525e+02 +3.2238266745e+02 3.8473572430e+02 1.0000000000e+02 0.0000e+00 0.0000e+00
   -10002  1    1    2    0    0 -1.4624260078e+01 +8.1728192372e+01 +1.7875186119e+02 2.2101039408e+02 1.0000000000e+02 0.0000e+00 0.0000e+00
<mgrwt>
<rscale>  0 0.49724275E+03</rscale>
<asrwt>0</asrwt>
<pdfrwt beam="1">  1        4 0.16996793E-01 0.49724275E+03</pdfrwt>
<pdfrwt beam="2">  1       -4 0.22729504E+00 0.49724275E+03</pdfrwt>
<totfact> 0.54646192E+00</totfact>
</mgrwt>
</event>
<event>
 6      1 +2.6141198e-09 5.33131400e+02 7.81860800e-03 1.00547600e-01
        4 -1    0    0  501    0 +0.0000000000e+00 +0.0000000000e+00 +2.6169708508e+02 2.6170016668e+02 1.2700000000e+00 0.0000e+00 1.0000e+00
       -4 -1    0    0    0  501 -0.0000000000e+00 -0.0000000000e+00 -2.7151875763e+02 2.7152172776e+02 1.2700000000e+00 0.0000e+00 1.0000e+00
      -13  1    1    2    0    0 -1.6251958483e+01 -3.2351758919e+01 -6.4892957217e+01 7.4309282867e+01 1.0566000000e-01 0.0000e+00 1.0000e+00
       13  1    1    2    0    0 -4.5011546667e+01 -6.2745941222e+00 +3.1262307850e+01 5.5161154093e+01 1.0566000000e-01 0.0000e+00 -1.0000e+00
    10002  1    1    2    0    0 +1.5997493434e+02 -2.6738632717e+01 +1.1634308935e+02 2.2325467192e+02 1.0000000000e+02 0.0000e+00 0.0000e+00
   -10002  1    1    2    0    0 -9.8711429185e+01 +6.5364985758e+01 -9.2534112525e+01 1.8049678556e+02 1.0000000000e+02 0.0000e+00 0.0000e+00
<mgrwt>
<rscale>  0 0.53313143E+03</rscale>
<asrwt>0</asrwt>
<pdfrwt beam="1">  1        4 0.65425028E-01 0.53313143E+03</pdfrwt>
<pdfrwt beam="2">  1       -4 0.67880446E-01 0.53313143E+03</pdfrwt>
<totfact> 0.84927341E+00</totfact>
</mgrwt>
</event>
<event>
 6      1 +2.6141198e-09 5.58119600e+02 7.81860800e-03 9.99631800e-02
       -4 -1    0    0    0  501 -0.0000000000e+00 +0.0000000000e+00 +2.4048363645e+02 2.4048698987e+02 1.2700000000e+00 0.0000e+00 -1.0000e+00
        4 -1    0    0  501    0 +0.0000000000e+00 -0.0000000000e+00 -3.2381712354e+02 3.2381961398e+02 1.2700000000e+00 0.0000e+00 -1.0000e+00
      -13  1    1    2    0    0 -2.2679191215e+01 +9.5464010914e+01 +5.2396330260e+00 9.8260816260e+01 1.0566000000e-01 0.0000e+00 -1.0000e+00
       13  1    1    2    0    0 -2.2598346938e+01 -1.6982183802e+01 -2.8854800378e+01 4.0394189185e+01 1.0566000000e-01 0.0000e+00 1.0000e+00
    10002  1    1    2    0    0 +1.5220074880e+02 -6.2501743255e+01 +9.2714405247e+01 2.1369954793e+02 1.0000000000e+02 0.0000e+00 0.0000e+00
   -10002  1    1    2    0    0 -1.0692321064e+02 -1.5980083857e+01 -1.5243272499e+02 2.1195205048e+02 1.0000000000e+02 0.0000e+00 0.0000e+00
<mgrwt>
<rscale>  0 0.55811959E+03</rscale>
<asrwt>0</asrwt>
<pdfrwt beam="1">  1        4 0.80955011E-01 0.55811959E+03</pdfrwt>
<pdfrwt beam="2">  1       -4 0.60121640E-01 0.55811959E+03</pdfrwt>
<totfact> 0.68909263E+00</totfact>
</mgrwt>
</event>
<event>
 6      1 +2.6141198e-09 5.10407800e+02 7.81860800e-03 1.01109700e-01
       -4 -1    0    0    0  501 -0.0000000000e+00 +0.0000000000e+00 +3.4691927285e+02 3.4692159744e+02 1.2700000000e+00 0.0000e+00 -1.0000e+00
        4 -1    0    0  501    0 +0.0000000000e+00 -0.0000000000e+00 -1.8773027208e+02 1.8773456782e+02 1.2700000000e+00 0.0000e+00 -1.0000e+00
      -13  1    1    2    0    0 -4.6256774366e+01 -5.0127829067e+00 -9.4088912335e+01 1.0496452618e+02 1.0566000000e-01 0.0000e+00 -1.0000e+00
       13  1    1    2    0    0 +2.9194418016e+01 +2.3195824833e+00 +5.9269205998e+00 2.9880328948e+01 1.0566000000e-01 0.0000e+00 1.0000e+00
    10002  1    1    2    0    0 +1.8166185284e+01 +1.1545929133e+02 +1.7382088300e+02 2.3210893479e+02 1.0000000000e+02 0.0000e+00 0.0000e+00
   -10002  1    1    2    0    0 -1.1038289344e+00 -1.1276609091e+02 +7.3530109495e+01 1.6770237535e+02 1.0000000000e+02 0.0000e+00 0.0000e+00
<mgrwt>
<rscale>  0 0.51040776E+03</rscale>
<asrwt>0</asrwt>
<pdfrwt beam="1">  1        4 0.46933396E-01 0.51040776E+03</pdfrwt>
<pdfrwt beam="2">  1       -4 0.86730645E-01 0.51040776E+03</pdfrwt>
<totfact> 0.98852797E+00</totfact>
</mgrwt>
</event>
<event>
 6      1 +2.6141198e-09 4.29472200e+02 7.81860800e-03 1.03402700e-01
        4 -1    0    0  501    0 +0.0000000000e+00 +0.0000000000e+00 +1.0250335324e+03 1.0250343191e+03 1.2700000000e+00 0.0000e+00 1.0000e+00
       -4 -1    0    0    0  501 -0.0000000000e+00 -0.0000000000e+00 -4.4975688137e+01 4.4993615363e+01 1.2700000000e+00 0.0000e+00 1.0000e+00
      -13  1    1    2    0    0 -5.5469726773e+01 -7.9889173901e+00 +1.8444424136e+02 1.9277033673e+02 1.0566000000e-01 0.0000e+00 -1.0000e+00
       13  1    1    2    0    0 +2.8717912110e+01 -5.0693947745e+01 +2.5522225273e+02 2.6178809038e+02 1.0566000000e-01 0.0000e+00 1.0000e+00
    10002  1    1    2    0    0 -1.9719534567e+01 -6.9895092467e+01 +2.6014535543e+02 2.8801005182e+02 1.0000000000e+02 0.0000e+00 0.0000e+00
   -10002  1    1    2    0    0 +4.6471349230e+01 +1.2857795760e+02 +2.8024599471e+02 3.2745945555e+02 1.0000000000e+02 0.0000e+00 0.0000e+00
<mgrwt>
<rscale>  0 0.42947224E+03</rscale>
<asrwt>0</asrwt>
<pdfrwt beam="1">  1        4 0.25626072E+00 0.42947224E+03</pdfrwt>
<pdfrwt beam="2">  1       -4 0.11246261E-01 0.42947224E+03</pdfrwt>
<totfact> 0.75505583E+00</totfact>
</mgrwt>
</event>
<event>
 6      1 +2.6141198e-09 6.24141400e+02 7.81860800e-03 9.85654900e-02
        4 -1    0    0  501    0 +0.0000000000e+00 +0.0000000000e+00 +4.8223825975e+02 4.8223993205e+02 1.2700000000e+00 0.0000e+00 -1.0000e+00
       -4 -1    0    0    0  501 -0.0000000000e+00 -0.0000000000e+00 -2.0194617119e+02 2.0195016454e+02 1.2700000000e+00 0.0000e+00 -1.0000e+00
      -13  1    1    2    0    0 +9.0021286372e-01 -1.0924021244e+02 +1.8634809178e+01 1.1082193679e+02 1.0566000000e-01 0.0000e+00 1.0000e+00
       13  1    1    2    0    0 +2.3252606545e+01 +2.6561942854e+00 +1.2564587442e+02 1.2780702642e+02 1.0566000000e-01 0.0000e+00 -1.0000e+00
    10002  1    1    2    0    0 +6.5140650655e+01 +1.2293970318e+02 +2.2574894364e+02 2.8340794015e+02 1.0000000000e+02 0.0000e+00 0.0000e+00
   -10002  1    1    2    0    0 -8.9293470063e+01 -1.6355685027e+01 -8.9737538674e+01 1.6215319323e+02 1.0000000000e+02 0.0000e+00 0.0000e+00
<mgrwt>
<rscale>  0 0.62414136E+03</rscale>
<asrwt>0</asrwt>
<pdfrwt beam="1">  1        4 0.12056027E+00 0.62414136E+03</pdfrwt>
<pdfrwt beam="2">  1       -4 0.50487251E-01 0.62414136E+03</pdfrwt>
<totfact> 0.38861177E+00</totfact>
</mgrwt>
</event>
<event>
 6      1 +2.6141198e-09 3.59999700e+02 7.81860800e-03 1.05858400e-01
       -4 -1    0    0    0  501 -0.0000000000e+00 +0.0000000000e+00 +4.6673103679e+01 4.6690379170e+01 1.2700000000e+00 0.0000e+00 -1.0000e+00
        4 -1    0    0  501    0 +0.0000000000e+00 -0.0000000000e+00 -6.9404256127e+02 6.9404372323e+02 1.2700000000e+00 0.0000e+00 -1.0000e+00
      -13  1    1    2    0    0 -1.6898429176e+01 -3.9348118846e+01 -1.1586397703e+02 1.2352450649e+02 1.0566000000e-01 0.0000e+00 -1.0000e+00
       13  1    1    2    0    0 +1.6579063023e+01 +4.7393266335e+01 -1.4433273666e+02 1.5281667795e+02 1.0566000000e-01 0.0000e+00 1.0000e+00
    10002  1    1    2    0    0 -6.7789394302e+01 +3.8374926072e+01 -1.9736915545e+02 2.3456901000e+02 1.0000000000e+02 0.0000e+00 0.0000e+00
   -10002  1    1    2    0    0 +6.8108760455e+01 -4.6420073561e+01 -1.8980358845e+02 2.2982390796e+02 1.0000000000e+02 0.0000e+00 0.0000e+00
<mgrwt>
<rscale>  0 0.35999972E+03</rscale>
<asrwt>0</asrwt>
<pdfrwt beam="1">  1        4 0.17351291E+00 0.35999972E+03</pdfrwt>
<pdfrwt beam="2">  1       -4 0.11670583E-01 0.35999972E+03</pdfrwt>
<totfact> 0.23440152E+01</totfact>
</mgrwt>
</event>
<event>
 6      1 +2.6141198e-09 4.37339700e+02 7.81860800e-03 1.03156600e-01
        4 -1    0    0  501    0 +0.0000000000e+00 +0.0000000000e+00 +6.3833582737e+02 6.3833709073e+02 1.2700000000e+00 0.0000e+00 -1.0000e+00
       -4 -1    0    0    0  501 -0.0000000000e+00 -0.0000000000e+00 -7.4901359104e+01 7.4912125158e+01 1.2700000000e+00 0.0000e+00 -1.0000e+00
      -13  1    1    2    0    0 -5.2026512860e+01 +2.6979336799e+00 +5.6685579042e+00 5.2404013198e+01 1.0566000000e-01 0.0000e+00 1.0000e+00
       13  1    1    2    0    0 +4.4145644141e+01 -2.0135147651e+00 +3.6539040102e+01 5.7341126201e+01 1.0566000000e-01 0.0000e+00 -1.0000e+00
    10002  1    1    2    0    0 -1.8991228965e+01 -6.9865565928e+01 +4.3462686831e+02 4.5182118005e+02 1.0000000000e+02 0.0000e+00 0.0000e+00
   -10002  1    1    2    0    0 +2.6872097685e+01 +6.9181147013e+01 +8.6600001942e+01 1.5168289644e+02 1.0000000000e+02 0.0000e+00 0.0000e+00
<mgrwt>
<rscale>  0 0.43733974E+03</rscale>
<asrwt>0</asrwt>
<pdfrwt beam="1">  1        4 0.15958546E+00 0.43733974E+03</pdfrwt>
<pdfrwt beam="2">  1       -4 0.18726843E-01 0.43733974E+03</pdfrwt>
<totfact> 0.12836568E+01</totfact>
</mgrwt>
</event>
<event>
 6      1 +2.6141198e-09 1.03137800e+03 7.81860800e-03 9.27478400e-02
       -4 -1    0    0    0  501 -0.0000000000e+00 +0.0000000000e+00 +2.9108875967e+02 2.9109153012e+02 1.2700000000e+00 0.0000e+00 -1.0000e+00
        4 -1    0    0  501    0 +0.0000000000e+00 -0.0000000000e+00 -9.1358007244e+02 9.1358095518e+02 1.2700000000e+00 0.0000e+00 -1.0000e+00
      -13  1    1    2    0    0 +1.3530334671e+01 +3.5470638233e+01 -3.3940296101e+00 3.8115177214e+01 1.0566000000e-01 0.0000e+00 -1.0000e+00
       13  1    1    2    0    0 -3.0644606874e+02 +8.4114350439e+01 -6.1348417727e+01 3.2364804421e+02 1.0566000000e-01 0.0000e+00 1.0000e+00
    10002  1    1    2    0    0 -5.4131517262e+01 -6.7260460956e+01 +4.3913146321e+01 1.3922124547e+02 1.0000000000e+02 0.0000e+00 0.0000e+00
   -10002  1    1    2    0    0 +3.4704725133e+02 -5.2324527716e+01 -6.0166201176e+02 7.0368801841e+02 1.0000000000e+02 0.0000e+00 0.0000e+00
<mgrwt>
<rscale>  0 0.10313779E+04</rscale>
<asrwt>0</asrwt>
<pdfrwt beam="1">  1        4 0.22839547E+00 0.10313779E+04</pdfrwt>
<pdfrwt beam="2">  1       -4 0.72772648E-01 0.10313779E+04</pdfrwt>
<totfact> 0.28899429E-01</totfact>
</mgrwt>
</event>
<event>
 6      1 +2.6141198e-09 4.97640100e+02 7.81860800e-03 1.01439700e-01
       -4 -1    0    0    0  501 -0.0000000000e+00 +0.0000000000e+00 +2.1577359020e+02 2.1577732765e+02 1.2700000000e+00 0.0000e+00 -1.0000e+00
        4 -1    0    0  501    0 +0.0000000000e+00 -0.0000000000e+00 -2.8692011688e+02 2.8692292758e+02 1.2700000000e+00 0.0000e+00 -1.0000e+00
      -13  1    1    2    0    0 +2.9457386880e+01 -2.6826104476e+01 +2.2734249091e+01 4.5871938796e+01 1.0566000000e-01 0.0000e+00 1.0000e+00
       13  1    1    2    0    0 -6.4947242310e+01 +1.9117316644e+01 +1.4609899447e+01 6.9260929861e+01 1.0566000000e-01 0.0000e+00 -1.0000e+00
    10002  1    1    2    0    0 +1.6634401459e+02 +4.7862450397e+01 -3.5609718331e+01 2.0304974117e+02 1.0000000000e+02 0.0000e+00 0.0000e+00
   -10002  1    1    2    0    0 -1.3085415916e+02 -4.0153662566e+01 -7.2880956890e+01 1.8451764540e+02 1.0000000000e+02 0.0000e+00 0.0000e+00
<mgrwt>
<rscale>  0 0.49764015E+03</rscale>
<asrwt>0</asrwt>
<pdfrwt beam="1">  1        4 0.71730848E-01 0.49764015E+03</pdfrwt>
<pdfrwt beam="2">  1       -4 0.53944216E-01 0.49764015E+03</pdfrwt>
<totfact> 0.11344570E+01</totfact>
</mgrwt>
</event>
<event>
 6      1 +2.6141198e-09 3.65455100e+02 7.81860800e-03 1.05644500e-01
       -4 -1    0    0    0  501 -0.0000000000e+00 +0.0000000000e+00 +2.7188231138e+02 2.7188527753e+02 1.2700000000e+00 0.0000e+00 1.0000e+00
        4 -1    0    0  501    0 +0.0000000000e+00 -0.0000000000e+00 -1.2280118387e+02 1.2280775082e+02 1.2700000000e+00 0.0000e+00 1.0000e+00
      -13  1    1    2    0    0 -9.9236506845e+00 +2.3320897383e+01 +7.6496626804e+01 8.0585905555e+01 1.0566000000e-01 0.0000e+00 1.0000e+00
       13  1    1    2    0    0 +6.2618368946e+01 +1.6233595888e+01 +3.5798982411e+00 6.4787472558e+01 1.0566000000e-01 0.0000e+00 -1.0000e+00
    10002  1    1    2    0    0 -7.9488437143e+00 -7.3899094738e+01 +4.0629130040e+01 1.3105337282e+02 1.0000000000e+02 0.0000e+00 0.0000e+00
   -10002  1    1    2    0    0 -4.4745874548e+01 +3.4344601468e+01 +2.8375472419e+01 1.1826627742e+02 1.0000000000e+02 0.0000e+00 0.0000e+00
<mgrwt>
<rscale>  0 0.36545506E+03</rscale>
<asrwt>0</asrwt>
<pdfrwt beam="1">  1        4 0.30701488E-01 0.36545506E+03</pdfrwt>
<pdfrwt beam="2">  1       -4 0.67971769E-01 0.36545506E+03</pdfrwt>
<totfact> 0.38992023E+01</totfact>
</mgrwt>
</event>
<event>
 6      1 +2.6141198e-09 3.25334100e+02 7.81860800e-03 1.07322000e-01
        4 -1    0    0  501    0 +0.0000000000e+00 +0.0000000000e+00 +5.6211682488e+02 5.6211825954e+02 1.2700000000e+00 0.0000e+00 1.0000e+00
       -4 -1    0    0    0  501 -0.0000000000e+00 -0.0000000000e+00 -4.7063002619e+01 4.7080135041e+01 1.2700000000e+00 0.0000e+00 1.0000e+00
      -13  1    1    2    0    0 +4.9364629078e+01 -2.2064960739e+01 +3.9865757950e+01 6.7179006523e+01 1.0566000000e-01 0.0000e+00 -1.0000e+00
       13  1    1    2    0    0 -8.3725213533e+00 +3.1675637590e+01 +1.2895262085e+02 1.3304974528e+02 1.0566000000e-01 0.0000e+00 1.0000e+00
    10002  1    1    2    0    0 -1.2378738701e+01 +2.0210263661e+01 +1.1863941474e+02 1.5696177451e+02 1.0000000000e+02 0.0000e+00 0.0000e+00
   -10002  1    1    2    0    0 -2.8613369023e+01 -2.9820940512e+01 +2.2759602872e+02 2.5200786827e+02 1.0000000000e+02 0.0000e+00 0.0000e+00
<mgrwt>
<rscale>  0 0.32533405E+03</rscale>
<asrwt>0</asrwt>
<pdfrwt beam="1">  1        4 0.14053153E+00 0.32533405E+03</pdfrwt>
<pdfrwt beam="2">  1       -4 0.11768072E-01 0.32533405E+03</pdfrwt>
<totfact> 0.40139971E+01</totfact>
</mgrwt>
</event>
<event>
 6      1 +2.6141198e-09 3.39015200e+02 7.81860800e-03 1.06721600e-01
       -4 -1    0    0    0  501 -0.0000000000e+00 +0.0000000000e+00 +1.6342369168e+02 1.6342862632e+02 1.2700000000e+00 0.0000e+00 1.0000e+00
        4 -1    0    0  501    0 +0.0000000000e+00 -0.0000000000e+00 -1.7580813532e+02 1.7581272237e+02 1.2700000000e+00 0.0000e+00 1.0000e+00
      -13  1    1    2    0    0 -5.9446327013e+01 -4.0072846657e+01 +3.4030459643e+00 7.1772492784e+01 1.0566000000e-01 0.0000e+00 1.0000e+00
       13  1    1    2    0    0 +7.2119145832e+00 +2.0113894264e+01 +2.9427234412e+01 3.6366932007e+01 1.0566000000e-01 0.0000e+00 -1.0000e+00
    10002  1    1    2    0    0 +6.7421653585e+01 -1.0036551305e+01 -2.0520119914e+01 1.2274969269e+02 1.0000000000e+02 0.0000e+00 0.0000e+00
   -10002  1    1    2    0    0 -1.5187241156e+01 +2.9995503698e+01 -2.4694604107e+01 1.0835223121e+02 1.0000000000e+02 0.0000e+00 0.0000e+00
<mgrwt>
<rscale>  0 0.33901522E+03</rscale>
<asrwt>0</asrwt>
<pdfrwt beam="1">  1        4 0.43953224E-01 0.33901522E+03</pdfrwt>
<pdfrwt beam="2">  1       -4 0.40857113E-01 0.33901522E+03</pdfrwt>
<totfact> 0.55289099E+01</totfact>
</mgrwt>
</event>
<event>
 6      1 +2.6141198e-09 5.18648900e+02 7.81860800e-03 1.00902300e-01
        4 -1    0    0  501    0 +0.0000000000e+00 +0.0000000000e+00 +4.7818981642e+02 4.7819150288e+02 1.2700000000e+00 0.0000e+00 1.0000e+00
       -4 -1    0    0    0  501 -0.0000000000e+00 -0.0000000000e+00 -1.4062799658e+02 1.4063373109e+02 1.2700000000e+00 0.0000e+00 1.0000e+00
      -13  1    1    2    0    0 +5.6497113403e+01 +2.0117474785e+01 +7.4522100763e+01 9.5656632184e+01 1.0566000000e-01 0.0000e+00 -1.0000e+00
       13  1    1    2    0    0 -2.4457407668e+01 -1.9189269264e+01 -9.5544211070e+00 3.2522161236e+01 1.0566000000e-01 0.0000e+00 1.0000e+00
    10002  1    1    2    0    0 -5.5246174753e+01 +1.4171762556e+02 +2.5599795573e+02 3.1411936992e+02 1.0000000000e+02 0.0000e+00 0.0000e+00
   -10002  1    1    2    0    0 +2.3206469018e+01 -1.4264583108e+02 +1.6596184455e+01 1.7652707063e+02 1.0000000000e+02 0.0000e+00 0.0000e+00
<mgrwt>
<rscale>  0 0.51864891E+03</rscale>
<asrwt>0</asrwt>
<pdfrwt beam="1">  1        4 0.11954838E+00 0.51864891E+03</pdfrwt>
<pdfrwt beam="2">  1       -4 0.35157927E-01 0.51864891E+03</pdfrwt>
<totfact> 0.82420372E+00</totfact>
</mgrwt>
</event>
<event>
 6      1 +2.6141198e-09 3.78322700e+02 7.81860800e-03 1.05155500e-01
        4 -1    0    0  501    0 +0.0000000000e+00 +0.0000000000e+00 +9.9726148811e+02 9.9726229677e+02 1.2700000000e+00 0.0000e+00 1.0000e+00
       -4 -1    0    0    0  501 -0.0000000000e+00 -0.0000000000e+00 -3.5868211305e+01 3.5890687959e+01 1.2700000000e+00 0.0000e+00 1.0000e+00
      -13  1    1    2    0    0 -7.4311709824e+01 +3.1887177767e+01 +3.0965163878e+02 3.2003620247e+02 1.0566000000e-01 0.0000e+00 -1.0000e+00
       13  1    1    2    0    0 +1.3187716171e+01 -1.9004550688e+01 +5.6359449023e+01 6.0921978488e+01 1.0566000000e-01 0.0000e+00 1.0000e+00
    10002  1    1    2    0    0 -2.9565162382e+01 -6.2773378906e+01 +2.9457342512e+02 3.1872887964e+02 1.0000000000e+02 0.0000e+00 0.0000e+00
   -10002  1    1    2    0    0 +9.0689156035e+01 +4.9890751827e+01 +3.0080876387e+02 3.3346592414e+02 1.0000000000e+02 0.0000e+00 0.0000e+00
<mgrwt>
<rscale>  0 0.37832269E+03</rscale>
<asrwt>0</asrwt>
<pdfrwt beam="1">  1        4 0.24931827E+00 0.37832269E+03</pdfrwt>
<pdfrwt beam="2">  1       -4 0.89699638E-02 0.37832269E+03</pdfrwt>
<totfact> 0.12219824E+01</totfact>
</mgrwt>
</event>
<event>
 6      1 +2.6141198e-09 8.16748100e+02 7.81860800e-03 9.53608600e-02
        4 -1    0    0  501    0 +0.0000000000e+00 +0.0000000000e+00 +5.8824400098e+02 5.8824537192e+02 1.2700000000e+00 0.0000e+00 -1.0000e+00
       -4 -1    0    0    0  501 -0.0000000000e+00 -0.0000000000e+00 -2.8350060509e+02 2.8350344969e+02 1.2700000000e+00 0.0000e+00 -1.0000e+00
      -13  1    1    2    0    0 -2.8689559380e+01 -7.6561721363e+01 +5.8486387482e+01 1.0052590054e+02 1.0566000000e-01 0.0000e+00 -1.0000e+00
       13  1    1    2    0    0 -6.0794740854e+01 +1.6937406408e+01 +5.3287950029e+01 8.2598383965e+01 1.0566000000e-01 0.0000e+00 1.0000e+00
    10002  1    1    2    0    0 +2.4723514550e+02 -1.9691996707e+02 +1.6430802494e+02 3.6999975360e+02 1.0000000000e+02 0.0000e+00 0.0000e+00
   -10002  1    1    2    0    0 -1.5775084527e+02 +2.5654428203e+02 +2.8661033439e+01 3.1862478350e+02 1.0000000000e+02 0.0000e+00 0.0000e+00
<mgrwt>
<rscale>  0 0.81674811E+03</rscale>
<asrwt>0</asrwt>
<pdfrwt beam="1">  1        4 0.14706153E+00 0.81674811E+03</pdfrwt>
<pdfrwt beam="2">  1       -4 0.70875678E-01 0.81674811E+03</pdfrwt>
<totfact> 0.11215207E+00</totfact>
</mgrwt>
</event>
<event>
 6      1 +2.6141198e-09 6.75771200e+02 7.81860800e-03 9.75958800e-02
        4 -1    0    0  501    0 +0.0000000000e+00 +0.0000000000e+00 +3.9828854167e+02 3.9829056646e+02 1.2700000000e+00 0.0000e+00 1.0000e+00
       -4 -1    0    0    0  501 -0.0000000000e+00 -0.0000000000e+00 -2.8663895325e+02 2.8664176670e+02 1.2700000000e+00 0.0000e+00 1.0000e+00
      -13  1    1    2    0    0 -3.9073985199e+00 +1.8429609753e+01 -3.1058379657e+01 3.6325643695e+01 1.0566000000e-01 0.0000e+00 1.0000e+00
       13  1    1    2    0    0 -4.1436739826e+01 -3.2474757718e+01 +3.9840281044e+01 6.6021757428e+01 1.0566000000e-01 0.0000e+00 -1.0000e+00
    10002  1    1    2    0    0 -2.0333278966e+02 -1.3010568738e+02 +9.5395966500e+01 2.7815841469e+02 1.0000000000e+02 0.0000e+00 0.0000e+00
   -10002  1    1    2    0    0 +2.4867692801e+02 +1.4415083534e+02 +7.4717205410e+00 3.0442651734e+02 1.0000000000e+02 0.0000e+00 0.0000e+00
<mgrwt>
<rscale>  0 0.67577117E+03</rscale>
<asrwt>0</asrwt>
<pdfrwt beam="1">  1        4 0.99572740E-01 0.67577117E+03</pdfrwt>
<pdfrwt beam="2">  1       -4 0.71660344E-01 0.67577117E+03</pdfrwt>
<totfact> 0.29095406E+00</totfact>
</mgrwt>
</event>
<event>
 6      1 +2.6141198e-09 5.25213400e+02 7.81860800e-03 1.00740000e-01
        4 -1    0    0  501    0 +0.0000000000e+00 +0.0000000000e+00 +1.2578435476e+02 1.2579076597e+02 1.2700000000e+00 0.0000e+00 -1.0000e+00
       -4 -1    0    0    0  501 -0.0000000000e+00 -0.0000000000e+00 -5.4823686734e+02 5.4823833833e+02 1.2700000000e+00 0.0000e+00 -1.0000e+00
      -13  1    1    2    0    0 -2.6811748945e+01 -7.0717501165e+01 -3.3961205724e+01 8.2904822000e+01 1.0566000000e-01 0.0000e+00 -1.0000e+00
       13  1    1    2    0    0 +6.3628979692e+01 -1.1374836748e+01 -1.1564450249e+01 6.5664157965e+01 1.0566000000e-01 0.0000e+00 1.0000e+00
    10002  1    1    2    0    0 +6.9456254921e+00 -8.9633556055e+01 -2.5489521333e+02 2.8819088442e+02 1.0000000000e+02 0.0000e+00 0.0000e+00
   -10002  1    1    2    0    0 -4.3762856239e+01 +1.7172589397e+02 -1.2203164328e+02 2.3726923991e+02 1.0000000000e+02 0.0000e+00 0.0000e+00
<mgrwt>
<rscale>  0 0.52521339E+03</rscale>
<asrwt>0</asrwt>
<pdfrwt beam="1">  1        4 0.31447075E-01 0.52521339E+03</pdfrwt>
<pdfrwt beam="2">  1       -4 0.13706020E+00 0.52521339E+03</pdfrwt>
<totfact> 0.72707678E+00</totfact>
</mgrwt>
</event>
<event>
 6      1 +2.6141198e-09 3.41243900e+02 7.81860800e-03 1.06626700e-01
        4 -1    0    0  501    0 +0.0000000000e+00 +0.0000000000e+00 +4.3205456694e+02 4.3205643348e+02 1.2700000000e+00 0.0000e+00 1.0000e+00
       -4 -1    0    0    0  501 -0.0000000000e+00 -0.0000000000e+00 -6.7372032125e+01 6.7384001162e+01 1.2700000000e+00 0.0000e+00 1.0000e+00
      -13  1    1    2    0    0 -4.2420446787e+01 -3.9971410612e+01 +1.1774974197e+02 1.3138577119e+02 1.0566000000e-01 0.0000e+00 -1.0000e+00
       13  1    1    2    0    0 +1.8495977099e+01 +1.8553358769e+01 -4.0164516093e-01 2.6201159771e+01 1.0566000000e-01 0.0000e+00 1.0000e+00
    10002  1    1    2    0    0 +2.4771941960e+00 +6.9230780745e+01 +1.4704453281e+02 1.9084321346e+02 1.0000000000e+02 0.0000e+00 0.0000e+00
   -10002  1    1    2    0    0 +2.1447275492e+01 -4.7812728902e+01 +1.0028990519e+02 1.5101029023e+02 1.0000000000e+02 0.0000e+00 0.0000e+00
<mgrwt>
<rscale>  0 0.34124390E+03</rscale>
<asrwt>0</asrwt>
<pdfrwt beam="1">  1        4 0.10801537E+00 0.34124390E+03</pdfrwt>
<pdfrwt beam="2">  1       -4 0.16844738E-01 0.34124390E+03</pdfrwt>
<totfact> 0.41029698E+01</totfact>
</mgrwt>
</event>
<event>
 6      1 +2.6141198e-09 3.74086300e+02 7.81860800e-03 1.05314100e-01
        4 -1    0    0  501    0 +0.0000000000e+00 +0.0000000000e+00 +3.2108607784e+02 3.2108858946e+02 1.2700000000e+00 0.0000e+00 -1.0000e+00
       -4 -1    0    0    0  501 -0.0000000000e+00 -0.0000000000e+00 -1.0895210277e+02 1.0895950439e+02 1.2700000000e+00 0.0000e+00 -1.0000e+00
      -13  1    1    2    0    0 +2.3195656817e+01 -2.1501259891e+01 +1.0988159969e+02 1.1434299185e+02 1.0566000000e-01 0.0000e+00 1.0000e+00
       13  1    1    2    0    0 +5.2704018755e+00 +2.6967072564e+01 -1.2014707164e+01 2.9989406311e+01 1.0566000000e-01 0.0000e+00 -1.0000e+00
    10002  1    1    2    0    0 -3.5437838866e+01 +5.4983963356e+01 +1.1889175970e+02 1.6856549817e+02 1.0000000000e+02 0.0000e+00 0.0000e+00
   -10002  1    1    2    0    0 +6.9717801741e+00 -6.0449776029e+01 -4.6246771478e+00 1.1715019752e+02 1.0000000000e+02 0.0000e+00 0.0000e+00
<mgrwt>
<rscale>  0 0.37408627E+03</rscale>
<asrwt>0</asrwt>
<pdfrwt beam="1">  1        4 0.80272758E-01 0.37408627E+03</pdfrwt>
<pdfrwt beam="2">  1       -4 0.27239265E-01 0.37408627E+03</pdfrwt>
<totfact> 0.33948383E+01</totfact>
</mgrwt>
</event>
<event>
 6      1 +2.6141198e-09 4.33326800e+02 7.81860800e-03 1.03281400e-01
       -4 -1    0    0    0  501 -0.0000000000e+00 +0.0000000000e+00 +2.2078893878e+02 2.2079259133e+02 1.2700000000e+00 0.0000e+00 -1.0000e+00
        4 -1    0    0  501    0 +0.0000000000e+00 -0.0000000000e+00 -2.1260759921e+02 2.1261139231e+02 1.2700000000e+00 0.0000e+00 -1.0000e+00
      -13  1    1    2    0    0 +6.8414358356e+00 -2.0285786526e+01 +1.5145958871e+01 2.6224599395e+01 1.0566000000e-01 0.0000e+00 1.0000e+00
       13  1    1    2    0    0 -9.1398173289e-01 +7.8261154643e+01 -8.0631132820e+01 1.1237007801e+02 1.0566000000e-01 0.0000e+00 -1.0000e+00
    10002  1    1    2    0    0 +8.7939391624e+01 +4.0278208191e+00 +5.0708636088e+01 1.4255148443e+02 1.0000000000e+02 0.0000e+00 0.0000e+00
   -10002  1    1    2    0    0 -9.3866845727e+01 -6.2003188937e+01 +2.2957877428e+01 1.5225782181e+02 1.0000000000e+02 0.0000e+00 0.0000e+00
<mgrwt>
<rscale>  0 0.43332676E+03</rscale>
<asrwt>0</asrwt>
<pdfrwt beam="1">  1        4 0.53152831E-01 0.43332676E+03</pdfrwt>
<pdfrwt beam="2">  1       -4 0.55198165E-01 0.43332676E+03</pdfrwt>
<totfact> 0.20482716E+01</totfact>
</mgrwt>
</event>
<event>
 6      1 +2.6141198e-09 5.36148500e+02 7.81860800e-03 1.00475200e-01
        4 -1    0    0  501    0 +0.0000000000e+00 +0.0000000000e+00 +1.5974860419e+02 1.5975365235e+02 1.2700000000e+00 0.0000e+00 -1.0000e+00
       -4 -1    0    0    0  501 -0.0000000000e+00 -0.0000000000e+00 -4.4984253777e+02 4.4984433050e+02 1.2700000000e+00 0.0000e+00 -1.0000e+00
      -13  1    1    2    0    0 +8.0975287319e+00 -6.0837049741e+01 -5.9521899650e+01 8.5496106898e+01 1.0566000000e-01 0.0000e+00 -1.0000e+00
       13  1    1    2    0    0 +1.4257044274e+01 -4.1455746542e+00 +3.6457071623e+01 3.9364683868e+01 1.0566000000e-01 0.0000e+00 1.0000e+00
    10002  1    1    2    0    0 -1.2438426892e+02 -5.4871817543e+01 -1.2532631765e+01 1.6923188108e+02 1.0000000000e+02 0.0000e+00 0.0000e+00
   -10002  1    1    2    0    0 +1.0202969592e+02 +1.1985444194e+02 -2.5449647379e+02 3.1550531101e+02 1.0000000000e+02 0.0000e+00 0.0000e+00
<mgrwt>
<rscale>  0 0.53614850E+03</rscale>
<asrwt>0</asrwt>
<pdfrwt beam="1">  1        4 0.39938007E-01 0.53614850E+03</pdfrwt>
<pdfrwt beam="2">  1       -4 0.11246149E+00 0.53614850E+03</pdfrwt>
<totfact> 0.74327874E+00</totfact>
</mgrwt>
</event>
<event>
 6      1 +2.6141198e-09 2.93372800e+02 7.81860800e-03 1.08860100e-01
       -4 -1    0    0    0  501 -0.0000000000e+00 +0.0000000000e+00 +1.7076624581e+02 1.7077096828e+02 1.2700000000e+00 0.0000e+00 1.0000e+00
        4 -1    0    0  501    0 +0.0000000000e+00 -0.0000000000e+00 -1.2599239565e+02 1.2599879627e+02 1.2700000000e+00 0.0000e+00 1.0000e+00
      -13  1    1    2    0    0 +1.8402488859e+01 +3.1576516301e+01 -8.7641204016e-01 3.6558271841e+01 1.0566000000e-01 0.0000e+00 -1.0000e+00
       13  1    1    2    0    0 -3.0920064465e+01 +2.3040281287e+00 +1.3484600406e+01 3.3811307935e+01 1.0566000000e-01 0.0000e+00 1.0000e+00
    10002  1    1    2    0    0 +1.5509128151e+01 +1.8737188360e+01 +4.5602481222e+01 1.1256643184e+02 1.0000000000e+02 0.0000e+00 0.0000e+00
   -10002  1    1    2    0    0 -2.9915525452e+00 -5.2617732790e+01 -1.3436819430e+01 1.1383375293e+02 1.0000000000e+02 0.0000e+00 0.0000e+00
<mgrwt>
<rscale>  0 0.29337279E+03</rscale>
<asrwt>0</asrwt>
<pdfrwt beam="1">  1        4 0.31499490E-01 0.29337279E+03</pdfrwt>
<pdfrwt beam="2">  1       -4 0.42692952E-01 0.29337279E+03</pdfrwt>
<totfact> 0.96388191E+01</totfact>
</mgrwt>
</event>
<event>
 6      1 +2.6141198e-09 4.58397600e+02 7.81860800e-03 1.02524700e-01
        4 -1    0    0  501    0 +0.0000000000e+00 +0.0000000000e+00 +2.2696566238e+02 2.2696921553e+02 1.2700000000e+00 0.0000e+00 1.0000e+00
       -4 -1    0    0    0  501 -0.0000000000e+00 -0.0000000000e+00 -2.3144682822e+02 2.3145031258e+02 1.2700000000e+00 0.0000e+00 1.0000e+00
      -13  1    1    2    0    0 -7.8105589400e+01 +1.2456011011e+01 -1.5223037655e+01 8.0544319137e+01 1.0566000000e-01 0.0000e+00 -1.0000e+00
       13  1    1    2    0    0 +2.3910456323e+01 -4.4780291363e+00 -3.3830048480e+01 4.1668285430e+01 1.0566000000e-01 0.0000e+00 1.0000e+00
    10002  1    1    2    0    0 +1.1044155541e+02 +8.6979959382e+01 +6.8013013948e+01 1.8544169047e+02 1.0000000000e+02 0.0000e+00 0.0000e+00
   -10002  1    1    2    0    0 -5.6246422337e+01 -9.4957941257e+01 -2.3441093654e+01 1.5076523308e+02 1.0000000000e+02 0.0000e+00 0.0000e+00
<mgrwt>
<rscale>  0 0.45839763E+03</rscale>
<asrwt>0</asrwt>
<pdfrwt beam="1">  1        4 0.56742295E-01 0.45839763E+03</pdfrwt>
<pdfrwt beam="2">  1       -4 0.57862587E-01 0.45839763E+03</pdfrwt>
<totfact> 0.16195409E+01</totfact>
</mgrwt>
</event>
<event>
 6      1 +2.6141198e-09 6.20984400e+02 7.81860800e-03 9.86280200e-02
       -4 -1    0    0    0  501 -0.0000000000e+00 +0.0000000000e+00 +8.8693468667e+02 8.8693559592e+02 1.2700000000e+00 0.0000e+00 -1.0000e+00
        4 -1    0    0  501    0 +0.0000000000e+00 -0.0000000000e+00 -1.0869036138e+02 1.0869778083e+02 1.2700000000e+00 0.0000e+00 -1.0000e+00
      -13  1    1    2    0    0 -4.0964231075e+01 -3.9134365625e+00 +3.1289216965e+01 5.1695352553e+01 1.0566000000e-01 0.0000e+00 -1.0000e+00
       13  1    1    2    0    0 -2.7816631784e+01 -1.0395773136e+02 +2.2834979706e+02 2.5243735043e+02 1.0566000000e-01 0.0000e+00 1.0000e+00
    10002  1    1    2    0    0 +1.0824238736e+02 +1.1134617133e+02 +5.4940209247e+02 5.7961801516e+02 1.0000000000e+02 0.0000e+00 0.0000e+00
   -10002  1    1    2    0    0 -3.9461524506e+01 -3.4750034052e+00 -3.0796781203e+01 1.1188265861e+02 1.0000000000e+02 0.0000e+00 0.0000e+00
<mgrwt>
<rscale>  0 0.62098437E+03</rscale>
<asrwt>0</asrwt>
<pdfrwt beam="1">  1        4 0.27173631E-01 0.62098437E+03</pdfrwt>
<pdfrwt beam="2">  1       -4 0.22173471E+00 0.62098437E+03</pdfrwt>
<totfact> 0.24758278E+00</totfact>
</mgrwt>
</event>
<event>
 6      1 +2.6141198e-09 7.52040900e+02 7.81860800e-03 9.63215400e-02
       -4 -1    0    0    0  501 -0.0000000000e+00 +0.0000000000e+00 +1.2641083752e+02 1.2641721696e+02 1.2700000000e+00 0.0000e+00 1.0000e+00
        4 -1    0    0  501    0 +0.0000000000e+00 -0.0000000000e+00 -1.1184718358e+03 1.1184725568e+03 1.2700000000e+00 0.0000e+00 1.0000e+00
      -13  1    1    2    0    0 -6.7169449596e+01 -1.2714739820e+01 -1.3697640291e+02 1.5308803247e+02 1.0566000000e-01 0.0000e+00 1.0000e+00
       13  1    1    2    0    0 -4.7454710762e+01 +7.9386201559e+01 -9.4215647084e+01 1.3202544410e+02 1.0566000000e-01 0.0000e+00 -1.0000e+00
    10002  1    1    2    0    0 +1.8537828196e+02 -2.4120238080e+02 -6.3755479819e+02 7.1345624716e+02 1.0000000000e+02 0.0000e+00 0.0000e+00
   -10002  1    1    2    0    0 -7.0754121601e+01 +1.7453091906e+02 -1.2331415006e+02 2.4632005001e+02 1.0000000000e+02 0.0000e+00 0.0000e+00
<mgrwt>
<rscale>  0 0.75204091E+03</rscale>
<asrwt>0</asrwt>
<pdfrwt beam="1">  1        4 0.27961882E+00 0.75204091E+03</pdfrwt>
<pdfrwt beam="2">  1       -4 0.31603600E-01 0.75204091E+03</pdfrwt>
<totfact> 0.81240996E-01</totfact>
</mgrwt>
</event>
<event>
 6      1 +2.6141198e-09 6.09782900e+02 7.81860800e-03 9.88531500e-02
       -4 -1    0    0    0  501 -0.0000000000e+00 +0.0000000000e+00 +8.2227128412e+02 8.2227226488e+02 1.2700000000e+00 0.0000e+00 1.0000e+00
        4 -1    0    0  501    0 +0.0000000000e+00 -0.0000000000e+00 -1.1304664131e+02 1.1305377486e+02 1.2700000000e+00 0.0000e+00 1.0000e+00
      -13  1    1    2    0    0 +7.0923837295e+01 -2.7350456394e+01 +7.6922590139e+01 1.0814496844e+02 1.0566000000e-01 0.0000e+00 -1.0000e+00
       13  1    1    2    0    0 +3.6278567397e+01 +3.7036223468e+01 +3.4568405838e+00 5.1959380404e+01 1.0566000000e-01 0.0000e+00 1.0000e+00
    10002  1    1    2    0    0 -9.2438101823e+01 -1.9713153741e+02 +3.5564215254e+02 4.2882045937e+02 1.0000000000e+02 0.0000e+00 0.0000e+00
   -10002  1    1    2    0    0 -1.4764302869e+01 +1.8744577033e+02 +2.7320305955e+02 3.4640123153e+02 1.0000000000e+02 0.0000e+00 0.0000e+00
<mgrwt>
<rscale>  0 0.60978292E+03</rscale>
<asrwt>0</asrwt>
<pdfrwt beam="1">  1        4 0.28262675E-01 0.60978292E+03</pdfrwt>
<pdfrwt beam="2">  1       -4 0.20556883E+00 0.60978292E+03</pdfrwt>
<totfact> 0.29083068E+00</totfact>
</mgrwt>
</event>
<event>
 6      1 +2.6141198e-09 4.08898900e+02 7.81860800e-03 1.04074100e-01
       -4 -1    0    0    0  501 -0.0000000000e+00 +0.0000000000e+00 +2.2574989837e+02 2.2575347066e+02 1.2700000000e+00 0.0000e+00 1.0000e+00
        4 -1    0    0  501    0 +0.0000000000e+00 -0.0000000000e+00 -1.8515160081e+02 1.8515595637e+02 1.2700000000e+00 0.0000e+00 1.0000e+00
      -13  1    1    2    0    0 -2.3126717465e+01 +3.7409114984e+00 -4.5654547410e-01 2.3432009674e+01 1.0566000000e-01 0.0000e+00 -1.0000e+00
       13  1    1    2    0    0 +1.0806086210e+02 -3.8856907687e+01 -3.8047560270e+01 1.2097370458e+02 1.0566000000e-01 0.0000e+00 1.0000e+00
    10002  1    1    2    0    0 -2.0454441176e+01 -3.6741096954e+01 +4.0997752251e+00 1.0855920286e+02 1.0000000000e+02 0.0000e+00 0.0000e+00
   -10002  1    1    2    0    0 -6.4479703463e+01 +7.1857093142e+01 +7.5002628086e+01 1.5794450992e+02 1.0000000000e+02 0.0000e+00 0.0000e+00
<mgrwt>
<rscale>  0 0.40889893E+03</rscale>
<asrwt>0</asrwt>
<pdfrwt beam="1">  1        4 0.46288891E-01 0.40889893E+03</pdfrwt>
<pdfrwt beam="2">  1       -4 0.56438465E-01 0.40889893E+03</pdfrwt>
<totfact> 0.25942471E+01</totfact>
</mgrwt>
</event>
<event>
 6      1 +2.6141198e-09 5.42389400e+02 7.81860800e-03 1.00327100e-01
       -4 -1    0    0    0  501 -0.0000000000e+00 +0.0000000000e+00 +1.0280408380e+02 1.0281192803e+02 1.2700000000e+00 0.0000e+00 -1.0000e+00
        4 -1    0    0  501    0 +0.0000000000e+00 -0.0000000000e+00 -7.1536938139e+02 7.1537050871e+02 1.2700000000e+00 0.0000e+00 -1.0000e+00
      -13  1    1    2    0    0 +2.9787595465e+01 -8.7952206888e+01 -2.3733901498e+02 2.5485821693e+02 1.0566000000e-01 0.0000e+00 1.0000e+00
       13  1    1    2    0    0 +1.8854577810e+01 +1.5468534172e+01 -1.0985499154e+01 2.6748140300e+01 1.0566000000e-01 0.0000e+00 -1.0000e+00
    10002  1    1    2    0    0 -1.6664081589e+02 +8.6518507277e+01 -3.0167889289e+02 3.6914058032e+02 1.0000000000e+02 0.0000e+00 0.0000e+00
   -10002  1    1    2    0    0 +1.1799864261e+02 -1.4034834561e+01 -6.2561890571e+01 1.6743549920e+02 1.0000000000e+02 0.0000e+00 0.0000e+00
<mgrwt>
<rscale>  0 0.54238940E+03</rscale>
<asrwt>0</asrwt>
<pdfrwt beam="1">  1        4 0.17884345E+00 0.54238940E+03</pdfrwt>
<pdfrwt beam="2">  1       -4 0.25702144E-01 0.54238940E+03</pdfrwt>
<totfact> 0.52406776E+00</totfact>
</mgrwt>
</event>
<event>
 6      1 +2.6141198e-09 4.13468600e+02 7.81860800e-03 1.03921300e-01
        4 -1    0    0  501    0 +0.0000000000e+00 +0.0000000000e+00 +4.8057400838e+02 4.8057568648e+02 1.2700000000e+00 0.0000e+00 -1.0000e+00
       -4 -1    0    0    0  501 -0.0000000000e+00 -0.0000000000e+00 -8.8927006975e+01 8.8936075186e+01 1.2700000000e+00 0.0000e+00 -1.0000e+00
      -13  1    1    2    0    0 +2.6936852524e+01 +7.4881216095e+00 -1.2861874828e+01 3.0775070711e+01 1.0566000000e-01 0.0000e+00 1.0000e+00
       13  1    1    2    0    0 -2.9337223133e+01 -5.9021825849e+01 +7.5852182478e+01 1.0048787657e+02 1.0566000000e-01 0.0000e+00 -1.0000e+00
    10002  1    1    2    0    0 +5.5825786317e+00 +7.7401007813e+01 +3.0781932819e+02 3.3282851441e+02 1.0000000000e+02 0.0000e+00 0.0000e+00
   -10002  1    1    2    0    0 -3.1822080228e+00 -2.5867303574e+01 +2.0837365565e+01 1.0542029997e+02 1.0000000000e+02 0.0000e+00 0.0000e+00
<mgrwt>
<rscale>  0 0.41346859E+03</rscale>
<asrwt>0</asrwt>
<pdfrwt beam="1">  1        4 0.12014484E+00 0.41346859E+03</pdfrwt>
<pdfrwt beam="2">  1       -4 0.22233095E-01 0.41346859E+03</pdfrwt>
<totfact> 0.19358073E+01</totfact>
</mgrwt>
</event>
<event>
 6      1 +2.6141198e-09 6.70408300e+02 7.81860800e-03 9.76922100e-02
        4 -1    0    0  501    0 +0.0000000000e+00 +0.0000000000e+00 +2.6517438535e+02 2.6517742654e+02 1.2700000000e+00 0.0000e+00 1.0000e+00
       -4 -1    0    0    0  501 -0.0000000000e+00 -0.0000000000e+00 -4.2372158696e+02 4.2372349021e+02 1.2700000000e+00 0.0000e+00 1.0000e+00
      -13  1    1    2    0    0 -3.7310697942e+01 -5.3282732079e+01 -3.7349511022e+01 7.5007565328e+01 1.0566000000e-01 0.0000e+00 -1.0000e+00
       13  1    1    2    0    0 +7.1996089684e+01 -1.2998203000e+02 -1.3165951106e+02 1.9852708397e+02 1.0566000000e-01 0.0000e+00 1.0000e+00
    10002  1    1    2    0    0 -9.7811596508e+01 -2.7723982935e+01 -7.2098830390e+01 1.5979351985e+02 1.0000000000e+02 0.0000e+00 0.0000e+00
   -10002  1    1    2    0    0 +6.3126204766e+01 +2.1098874501e+02 +8.2560650863e+01 2.5557274761e+02 1.0000000000e+02 0.0000e+00 0.0000e+00
<mgrwt>
<rscale>  0 0.67040828E+03</rscale>
<asrwt>0</asrwt>
<pdfrwt beam="1">  1        4 0.66294215E-01 0.67040828E+03</pdfrwt>
<pdfrwt beam="2">  1       -4 0.10593101E+00 0.67040828E+03</pdfrwt>
<totfact> 0.29777743E+00</totfact>
</mgrwt>
</event>
<event>
 6      1 +2.6141198e-09 4.40407700e+02 7.81860800e-03 1.03062200e-01
       -4 -1    0    0    0  501 -0.0000000000e+00 +0.0000000000e+00 +7.4714101559e+01 7.4724894592e+01 1.2700000000e+00 0.0000e+00 1.0000e+00
        4 -1    0    0  501    0 +0.0000000000e+00 -0.0000000000e+00 -6.4894545941e+02 6.4894670212e+02 1.2700000000e+00 0.0000e+00 1.0000e+00
      -13  1    1    2    0    0 -1.1623600819e+00 +2.6712648146e+01 -4.8771575192e-01 2.6742581824e+01 1.0566000000e-01 0.0000e+00 1.0000e+00
       13  1    1    2    0    0 +1.9747318615e+01 -4.9933241067e+01 -5.9163184659e+01 7.9897301199e+01 1.0566000000e-01 0.0000e+00 -1.0000e+00
    10002  1    1    2    0    0 -7.7782052486e+01 +7.8480710247e+01 -4.4802515869e+02 4.7216079082e+02 1.0000000000e+02 0.0000e+00 0.0000e+00
   -10002  1    1    2    0    0 +5.9197093953e+01 -5.5260117326e+01 -6.6555298748e+01 1.4487092286e+02 1.0000000000e+02 0.0000e+00 0.0000e+00
<mgrwt>
<rscale>  0 0.44040768E+03</rscale>
<asrwt>0</asrwt>
<pdfrwt beam="1">  1        4 0.16223785E+00 0.44040768E+03</pdfrwt>
<pdfrwt beam="2">  1       -4 0.18680032E-01 0.44040768E+03</pdfrwt>
<totfact> 0.12337594E+01</totfact>
</mgrwt>
</event>
<event>
 6      1 +2.6141198e-09 3.79495400e+02 7.81860800e-03 1.05112000e-01
       -4 -1    0    0    0  501 -0.0000000000e+00 +0.0000000000e+00 +2.5597717358e+02 2.5598032404e+02 1.2700000000e+00 0.0000e+00 1.0000e+00
        4 -1    0    0  501    0 +0.0000000000e+00 -0.0000000000e+00 -1.4064700299e+02 1.4065273674e+02 1.2700000000e+00 0.0000e+00 1.0000e+00
      -13  1    1    2    0    0 +2.6364851880e+01 -5.5028574128e+01 -1.9173653795e+01 6.3960062141e+01 1.0566000000e-01 0.0000e+00 -1.0000e+00
       13  1    1    2    0    0 -5.4714766412e+01 +9.3735992132e+00 +4.8490106807e+00 5.5723371168e+01 1.0566000000e-01 0.0000e+00 1.0000e+00
    10002  1    1    2    0    0 +3.0210274534e+01 +7.0532212953e+01 +1.1898409711e+02 1.7333398143e+02 1.0000000000e+02 0.0000e+00 0.0000e+00
   -10002  1    1    2    0    0 -1.8603600020e+00 -2.4877238038e+01 +1.0670716591e+01 1.0361564604e+02 1.0000000000e+02 0.0000e+00 0.0000e+00
<mgrwt>
<rscale>  0 0.37949537E+03</rscale>
<asrwt>0</asrwt>
<pdfrwt beam="1">  1        4 0.35162862E-01 0.37949537E+03</pdfrwt>
<pdfrwt beam="2">  1       -4 0.63995403E-01 0.37949537E+03</pdfrwt>
<totfact> 0.34233783E+01</totfact>
</mgrwt>
</event>
<event>
 6      1 +2.6141198e-09 5.61994800e+02 7.81860800e-03 9.98755100e-02
        4 -1    0    0  501    0 +0.0000000000e+00 +0.0000000000e+00 +3.3469056983e+02 3.3469297936e+02 1.2700000000e+00 0.0000e+00 -1.0000e+00
       -4 -1    0    0    0  501 -0.0000000000e+00 -0.0000000000e+00 -2.3591309260e+02 2.3591651100e+02 1.2700000000e+00 0.0000e+00 -1.0000e+00
      -13  1    1    2    0    0 +1.4077166997e+01 -9.5476434330e+01 -3.9449112564e+01 1.0426005846e+02 1.0566000000e-01 0.0000e+00 1.0000e+00
       13  1    1    2    0    0 +3.6824767730e+01 -3.0548515477e-01 +2.6236921679e+01 4.5216634801e+01 1.0566000000e-01 0.0000e+00 -1.0000e+00
    10002  1    1    2    0    0 -1.8526654764e+02 +1.0906874233e+02 +7.8872834396e+01 2.4988118823e+02 1.0000000000e+02 0.0000e+00 0.0000e+00
   -10002  1    1    2    0    0 +1.3436461292e+02 -1.3286822842e+01 +3.3116833718e+01 1.7125160887e+02 1.0000000000e+02 0.0000e+00 0.0000e+00
<mgrwt>
<rscale>  0 0.56199484E+03</rscale>
<asrwt>0</asrwt>
<pdfrwt beam="1">  1        4 0.83673370E-01 0.56199484E+03</pdfrwt>
<pdfrwt beam="2">  1       -4 0.58979002E-01 0.56199484E+03</pdfrwt>
<totfact> 0.66611997E+00</totfact>
</mgrwt>
</event>
<event>
 6      1 +2.6141198e-09 3.73705400e+02 7.81860800e-03 1.05328500e-01
       -4 -1    0    0    0  501 -0.0000000000e+00 +0.0000000000e+00 +2.5004825028e+01 2.5037056031e+01 1.2700000000e+00 0.0000e+00 1.0000e+00
        4 -1    0    0  501    0 +0.0000000000e+00 -0.0000000000e+00 -1.3953555963e+03 1.3953561742e+03 1.2700000000e+00 0.0000e+00 1.0000e+00
      -13  1    1    2    0    0 -3.0673806600e+00 -4.8813866194e+01 -2.3444224795e+02 2.3948983516e+02 1.0566000000e-01 0.0000e+00 1.0000e+00
       13  1    1    2    0    0 -6.2262909537e+01 +3.5903042470e+01 -4.3411770976e+02 4.4002715308e+02 1.0566000000e-01 0.0000e+00 -1.0000e+00
    10002  1    1    2    0    0 +2.2831946963e+01 +4.3336921533e+01 -2.2671970602e+02 2.5258901731e+02 1.0000000000e+02 0.0000e+00 0.0000e+00
   -10002  1    1    2    0    0 +4.2498343234e+01 -3.0426097809e+01 -4.7507110752e+02 4.8828722470e+02 1.0000000000e+02 0.0000e+00 0.0000e+00
<mgrwt>
<rscale>  0 0.37370535E+03</rscale>
<asrwt>0</asrwt>
<pdfrwt beam="1">  1        4 0.34884274E+00 0.37370535E+03</pdfrwt>
<pdfrwt beam="2">  1       -4 0.62553121E-02 0.37370535E+03</pdfrwt>
<totfact> 0.55937253E+00</totfact>
</mgrwt>
</event>
<event>
 6      1 +2.6141198e-09 5.71320000e+02 7.81860800e-03 9.96676200e-02
        4 -1    0    0  501    0 +0.0000000000e+00 +0.0000000000e+00 +1.0471059397e+03 1.0471067098e+03 1.2700000000e+00 0.0000e+00 1.0000e+00
       -4 -1    0    0    0  501 -0.0000000000e+00 -0.0000000000e+00 -7.7924667134e+01 7.7935015544e+01 1.2700000000e+00 0.0000e+00 1.0000e+00
      -13  1    1    2    0    0 -1.8323510297e+01 +1.2843397201e+01 +8.1710502906e+01 8.4719073003e+01 1.0566000000e-01 0.0000e+00 1.0000e+00
       13  1    1    2    0    0 -5.8873292542e+01 -1.0801057165e+02 +1.1600026897e+02 1.6908110991e+02 1.0566000000e-01 0.0000e+00 -1.0000e+00
    10002  1    1    2    0    0 +1.2688796714e+02 +1.8650808298e+02 +3.7086095719e+02 4.4544771948e+02 1.0000000000e+02 0.0000e+00 0.0000e+00
   -10002  1    1    2    0    0 -4.9691164301e+01 -9.1340908531e+01 +4.0060954348e+02 4.2579382300e+02 1.0000000000e+02 0.0000e+00 0.0000e+00
<mgrwt>
<rscale>  0 0.57132000E+03</rscale>
<asrwt>0</asrwt>
<pdfrwt beam="1">  1        4 0.26177787E+00 0.57132000E+03</pdfrwt>
<pdfrwt beam="2">  1       -4 0.19482557E-01 0.57132000E+03</pdfrwt>
<totfact> 0.26261642E+00</totfact>
</mgrwt>
</event>
<event>
 6      1 +2.6141198e-09 6.33210100e+02 7.81860800e-03 9.83880400e-02
        4 -1    0    0  501    0 +0.0000000000e+00 +0.0000000000e+00 +1.7854787835e+02 1.7855239501e+02 1.2700000000e+00 0.0000e+00 -1.0000e+00
       -4 -1    0    0    0  501 -0.0000000000e+00 -0.0000000000e+00 -5.6139879764e+02 5.6140023414e+02 1.2700000000e+00 0.0000e+00 -1.0000e+00
      -13  1    1    2    0    0 +1.1297112996e+02 -6.7176237102e+00 -1.9380738534e+01 1.1481823402e+02 1.0566000000e-01 0.0000e+00 -1.0000e+00
       13  1    1    2    0    0 +4.0270376086e+01 +7.8170180508e+01 +5.1994425857e-01 8.7934986307e+01 1.0566000000e-01 0.0000e+00 1.0000e+00
    10002  1    1    2    0    0 -1.6184604286e+02 -1.6226613369e+02 -2.9009068592e+02 3.8298439367e+02 1.0000000000e+02 0.0000e+00 0.0000e+00
   -10002  1    1    2    0    0 +8.6045368175e+00 +9.0813576895e+01 -7.3899439096e+01 1.5421501516e+02 1.0000000000e+02 0.0000e+00 0.0000e+00
<mgrwt>
<rscale>  0 0.63321013E+03</rscale>
<asrwt>0</asrwt>
<pdfrwt beam="1">  1        4 0.44637715E-01 0.63321013E+03</pdfrwt>
<pdfrwt beam="2">  1       -4 0.14035044E+00 0.63321013E+03</pdfrwt>
<totfact> 0.34096471E+00</totfact>
</mgrwt>
</event>
<event>
 6      1 +2.6141198e-09 3.51972000e+02 7.81860800e-03 1.06180900e-01
       -4 -1    0    0    0  501 -0.0000000000e+00 +0.0000000000e+00 +8.2372246042e+01 8.2382035773e+01 1.2700000000e+00 0.0000e+00 -1.0000e+00
        4 -1    0    0  501    0 +0.0000000000e+00 -0.0000000000e+00 -3.7595599290e+02 3.7595813796e+02 1.2700000000e+00 0.0000e+00 -1.0000e+00
      -13  1    1    2    0    0 -2.3280181125e+01 +3.8594725221e+01 -3.7386504845e+01 5.8560067935e+01 1.0566000000e-01 0.0000e+00 1.0000e+00
       13  1    1    2    0    0 +3.0483610620e+01 -1.6885015132e+01 -2.1220177466e+00 3.4912295482e+01 1.0566000000e-01 0.0000e+00 -1.0000e+00
    10002  1    1    2    0    0 -5.8775370217e+01 +3.9823608723e+00 -2.1262443830e+02 2.4223863256e+02 1.0000000000e+02 0.0000e+00 0.0000e+00
   -10002  1    1    2    0    0 +5.1571940722e+01 -2.5692070961e+01 -4.1450785971e+01 1.2262917776e+02 1.0000000000e+02 0.0000e+00 0.0000e+00
<mgrwt>
<rscale>  0 0.35197201E+03</rscale>
<asrwt>0</asrwt>
<pdfrwt beam="1">  1        4 0.93990486E-01 0.35197201E+03</pdfrwt>
<pdfrwt beam="2">  1       -4 0.20594554E-01 0.35197201E+03</pdfrwt>
<totfact> 0.39677118E+01</totfact>
</mgrwt>
</event>
<event>
 6      1 +2.6141198e-09 4.08621800e+02 7.81860800e-03 1.04083400e-01
       -4 -1    0    0    0  501 -0.0000000000e+00 +0.0000000000e+00 +2.0341925811e+02 2.0342322255e+02 1.2700000000e+00 0.0000e+00 -1.0000e+00
        4 -1    0    0  501    0 +0.0000000000e+00 -0.0000000000e+00 -2.0519848379e+02 2.0520241384e+02 1.2700000000e+00 0.0000e+00 -1.0000e+00
      -13  1    1    2    0    0 +3.5845050254e+01 +9.6863090119e+00 -8.1955232564e+00 3.8024596979e+01 1.0566000000e-01 0.0000e+00 1.0000e+00
       13  1    1    2    0    0 -6.3791216893e+01 -5.6260991748e+01 +2.1744739329e+01 8.7792160229e+01 1.0566000000e-01 0.0000e+00 -1.0000e+00
    10002  1    1    2    0    0 -7.3723812483e+01 +6.0923624104e+01 -1.7434031986e+01 1.3946624671e+02 1.0000000000e+02 0.0000e+00 0.0000e+00
   -10002  1    1    2    0    0 +1.0166997912e+02 -1.4348941368e+01 +2.1055902413e+00 1.4334263247e+02 1.0000000000e+02 0.0000e+00 0.0000e+00
<mgrwt>
<rscale>  0 0.40862176E+03</rscale>
<asrwt>0</asrwt>
<pdfrwt beam="1">  1        4 0.51300608E-01 0.40862176E+03</pdfrwt>
<pdfrwt beam="2">  1       -4 0.50855801E-01 0.40862176E+03</pdfrwt>
<totfact> 0.26101940E+01</totfact>
</mgrwt>
</event>
<event>
 6      1 +2.6141198e-09 7.34333100e+02 7.81860800e-03 9.66025500e-02
       -4 -1    0    0    0  501 -0.0000000000e+00 +0.0000000000e+00 +2.5536557909e+02 2.5536873710e+02 1.2700000000e+00 0.0000e+00 -1.0000e+00
        4 -1    0    0  501    0 +0.0000000000e+00 -0.0000000000e+00 -5.2790764335e+02 5.2790917098e+02 1.2700000000e+00 0.0000e+00 -1.0000e+00
      -13  1    1    2    0    0 -5.5787193015e+01 -2.5213248496e+01 -4.0852761477e+01 7.3599443534e+01 1.0566000000e-01 0.0000e+00 -1.0000e+00
       13  1    1    2    0    0 -5.8621441045e+00 +2.9395719425e+01 +7.3510281654e+00 3.0862952438e+01 1.0566000000e-01 0.0000e+00 1.0000e+00
    10002  1    1    2    0    0 -2.0488034415e+02 +1.3242466472e+02 -2.4935956465e+02 3.6289452975e+02 1.0000000000e+02 0.0000e+00 0.0000e+00
   -10002  1    1    2    0    0 +2.6652968127e+02 -1.3660713565e+02 +1.0319233699e+01 3.1592098235e+02 1.0000000000e+02 0.0000e+00 0.0000e+00
<mgrwt>
<rscale>  0 0.73433310E+03</rscale>
<asrwt>0</asrwt>
<pdfrwt beam="1">  1        4 0.13197749E+00 0.73433310E+03</pdfrwt>
<pdfrwt beam="2">  1       -4 0.63841981E-01 0.73433310E+03</pdfrwt>
<totfact> 0.18742324E+00</totfact>
</mgrwt>
</event>
<event>
 6      1 +2.6141198e-09 3.65508300e+02 7.81860800e-03 1.05642400e-01
        4 -1    0    0  501    0 +0.0000000000e+00 +0.0000000000e+00 +8.3495856880e+02 8.3495953465e+02 1.2700000000e+00 0.0000e+00 1.0000e+00
       -4 -1    0    0    0  501 -0.0000000000e+00 -0.0000000000e+00 -3.9989805812e+01 4.0009967120e+01 1.2700000000e+00 0.0000e+00 1.0000e+00
      -13  1    1    2    0    0 +3.6556298507e-01 -3.5568133904e+01 +8.7558011034e+01 9.4507366094e+01 1.0566000000e-01 0.0000e+00 1.0000e+00
       13  1    1    2    0    0 +5.2667098524e+01 +7.1103246603e+01 +2.7112242329e+02 2.8519620355e+02 1.0566000000e-01 0.0000e+00 -1.0000e+00
    10002  1    1    2    0    0 -2.2422139247e+01 -4.5672825295e+01 +3.1716510135e+02 3.3642601091e+02 1.0000000000e+02 0.0000e+00 0.0000e+00
   -10002  1    1    2    0    0 -3.0610522262e+01 +1.0137712596e+01 +1.1912322731e+02 1.5883992123e+02 1.0000000000e+02 0.0000e+00 0.0000e+00
<mgrwt>
<rscale>  0 0.36550827E+03</rscale>
<asrwt>0</asrwt>
<pdfrwt beam="1">  1        4 0.20874228E+00 0.36550827E+03</pdfrwt>
<pdfrwt beam="2">  1       -4 0.10000092E-01 0.36550827E+03</pdfrwt>
<totfact> 0.17957563E+01</totfact>
</mgrwt>
</event>
<event>
 6      1 +2.6141198e-09 1.04107800e+03 7.81860800e-03 9.26460400e-02
        4 -1    0    0  501    0 +0.0000000000e+00 +0.0000000000e+00 +5.5241682295e+02 5.5241828281e+02 1.2700000000e+00 0.0000e+00 -1.0000e+00
       -4 -1    0    0    0  501 -0.0000000000e+00 -0.0000000000e+00 -4.9049770647e+02 4.9049935061e+02 1.2700000000e+00 0.0000e+00 -1.0000e+00
      -13  1    1    2    0    0 +1.3203026240e+01 -3.4330873272e+01 -2.8368041533e+01 4.6450895642e+01 1.0566000000e-01 0.0000e+00 -1.0000e+00
       13  1    1    2    0    0 +8.4117055165e+01 +3.9635319634e+01 -2.2032302187e+02 2.3914197177e+02 1.0566000000e-01 0.0000e+00 1.0000e+00
    10002  1    1    2    0    0 -2.0172352263e+02 +1.1042620320e+01 +4.8224115305e+02 5.3232588584e+02 1.0000000000e+02 0.0000e+00 0.0000e+00
   -10002  1    1    2    0    0 +1.0440344122e+02 -1.6347066681e+01 -1.7163097316e+02 2.2499888016e+02 1.0000000000e+02 0.0000e+00 0.0000e+00
<mgrwt>
<rscale>  0 0.10410779E+04</rscale>
<asrwt>0</asrwt>
<pdfrwt beam="1">  1        4 0.13810459E+00 0.10410779E+04</pdfrwt>
<pdfrwt beam="2">  1       -4 0.12262482E+00 0.10410779E+04</pdfrwt>
<totfact> 0.35913572E-01</totfact>
</mgrwt>
</event>
<event>
 6      1 +2.6141198e-09 4.80682000e+02 7.81860800e-03 1.01894800e-01
        4 -1    0    0  501    0 +0.0000000000e+00 +0.0000000000e+00 +1.1338125860e+02 1.1338837110e+02 1.2700000000e+00 0.0000e+00 -1.0000e+00
       -4 -1    0    0    0  501 -0.0000000000e+00 -0.0000000000e+00 -5.0944127071e+02 5.0944285372e+02 1.2700000000e+00 0.0000e+00 -1.0000e+00
      -13  1    1    2    0    0 -4.0902644536e+01 -3.3022522455e+01 -2.2391376245e+01 5.7139287828e+01 1.0566000000e-01 0.0000e+00 -1.0000e+00
       13  1    1    2    0    0 +2.3192569216e+01 +2.0188745148e+01 -3.7166219691e+01 4.8237120019e+01 1.0566000000e-01 0.0000e+00 1.0000e+00
    10002  1    1    2    0    0 +1.6255697252e+02 +4.9726993358e+01 -2.4845932224e+02 3.1722165436e+02 1.0000000000e+02 0.0000e+00 0.0000e+00
   -10002  1    1    2    0    0 -1.4484689720e+02 -3.6893216051e+01 -8.8043093933e+01 2.0023316261e+02 1.0000000000e+02 0.0000e+00 0.0000e+00
<mgrwt>
<rscale>  0 0.48068202E+03</rscale>
<asrwt>0</asrwt>
<pdfrwt beam="1">  1        4 0.28346403E-01 0.48068202E+03</pdfrwt>
<pdfrwt beam="2">  1       -4 0.12736140E+00 0.48068202E+03</pdfrwt>
<totfact> 0.10667555E+01</totfact>
</mgrwt>
</event>
<event>
 6      1 +2.6141198e-09 3.94253900e+02 7.81860800e-03 1.04578800e-01
       -4 -1    0    0    0  501 -0.0000000000e+00 +0.0000000000e+00 +3.8673726111e+01 3.8694573151e+01 1.2700000000e+00 0.0000e+00 -1.0000e+00
        4 -1    0    0  501    0 +0.0000000000e+00 -0.0000000000e+00 -1.0044995874e+03 1.0045003902e+03 1.2700000000e+00 0.0000e+00 -1.0000e+00
      -13  1    1    2    0    0 +2.8497729051e-02 +5.5314661667e+01 -2.7995071590e+02 2.8536314952e+02 1.0566000000e-01 0.0000e+00 -1.0000e+00
       13  1    1    2    0    0 -4.3066400916e+01 -3.6031931212e+01 -9.2787154682e+01 1.0845497772e+02 1.0566000000e-01 0.0000e+00 1.0000e+00
    10002  1    1    2    0    0 -3.6780026912e+01 +3.3639622676e+00 -1.2850954032e+02 1.6696942407e+02 1.0000000000e+02 0.0000e+00 0.0000e+00
   -10002  1    1    2    0    0 +7.9817930099e+01 -2.2646692722e+01 -4.6457845034e+02 4.8240741203e+02 1.0000000000e+02 0.0000e+00 0.0000e+00
<mgrwt>
<rscale>  0 0.39425390E+03</rscale>
<asrwt>0</asrwt>
<pdfrwt beam="1">  1        4 0.25112752E+00 0.39425390E+03</pdfrwt>
<pdfrwt beam="2">  1       -4 0.96711411E-02 0.39425390E+03</pdfrwt>
<totfact> 0.10494223E+01</totfact>
</mgrwt>
</event>
<event>
 6      1 +2.6141198e-09 6.75953700e+02 7.81860800e-03 9.75926200e-02
       -4 -1    0    0    0  501 -0.0000000000e+00 +0.0000000000e+00 +8.7071012522e+01 8.7080274009e+01 1.2700000000e+00 0.0000e+00 -1.0000e+00
        4 -1    0    0  501    0 +0.0000000000e+00 -0.0000000000e+00 -1.3118193752e+03 1.3118199900e+03 1.2700000000e+00 0.0000e+00 -1.0000e+00
      -13  1    1    2    0    0 -4.5382467630e+00 +5.1825842726e+01 -7.1426832890e+01 8.8364683435e+01 1.0566000000e-01 0.0000e+00 1.0000e+00
       13  1    1    2    0    0 +4.1925155659e+01 +1.2235299589e+02 -5.9632781083e+02 6.1019246423e+02 1.0566000000e-01 0.0000e+00 -1.0000e+00
    10002  1    1    2    0    0 -1.0775539701e+02 -2.2978823052e+02 -2.7172658286e+02 3.8503141729e+02 1.0000000000e+02 0.0000e+00 0.0000e+00
   -10002  1    1    2    0    0 +7.0368488117e+01 +5.5609391909e+01 -2.8526713614e+02 3.1531169904e+02 1.0000000000e+02 0.0000e+00 0.0000e+00
<mgrwt>
<rscale>  0 0.67595369E+03</rscale>
<asrwt>0</asrwt>
<pdfrwt beam="1">  1        4 0.32795602E+00 0.67595369E+03</pdfrwt>
<pdfrwt beam="2">  1       -4 0.21768992E-01 0.67595369E+03</pdfrwt>
<totfact> 0.83900022E-01</totfact>
</mgrwt>
</event>
<event>
 6      1 +2.6141198e-09 5.21684600e+02 7.81860800e-03 1.00826900e-01
       -4 -1    0    0    0  501 -0.0000000000e+00 +0.0000000000e+00 +4.2227300876e+02 4.2227491854e+02 1.2700000000e+00 0.0000e+00 1.0000e+00
        4 -1    0    0  501    0 +0.0000000000e+00 -0.0000000000e+00 -1.6112014049e+02 1.6112514568e+02 1.2700000000e+00 0.0000e+00 1.0000e+00
      -13  1    1    2    0    0 +1.6066594960e+01 -3.4759449517e+01 +7.9128130064e+00 3.9102155670e+01 1.0566000000e-01 0.0000e+00 1.0000e+00
       13  1    1    2    0    0 +4.7445643781e-01 +8.3361223958e+01 +3.5257407059e+01 9.0511958797e+01 1.0566000000e-01 0.0000e+00 -1.0000e+00
    10002  1    1    2    0    0 +4.2307796043e+01 -8.6985647621e+01 +2.8300217227e+02 3.1535167989e+02 1.0000000000e+02 0.0000e+00 0.0000e+00
   -10002  1    1    2    0    0 -5.8848847441e+01 +3.8383873181e+01 -6.5019524058e+01 1.3843426987e+02 1.0000000000e+02 0.0000e+00 0.0000e+00
<mgrwt>
<rscale>  0 0.52168459E+03</rscale>
<asrwt>0</asrwt>
<pdfrwt beam="1">  1        4 0.40280900E-01 0.52168459E+03</pdfrwt>
<pdfrwt beam="2">  1       -4 0.10556912E+00 0.52168459E+03</pdfrwt>
<totfact> 0.85074317E+00</totfact>
</mgrwt>
</event>
<event>
 6      1 +2.6141198e-09 5.14686100e+02 7.81860800e-03 1.01001500e-01
       -4 -1    0    0    0  501 -0.0000000000e+00 +0.0000000000e+00 +4.9235169730e+02 4.9235333526e+02 1.2700000000e+00 0.0000e+00 -1.0000e+00
        4 -1    0    0  501    0 +0.0000000000e+00 -0.0000000000e+00 -1.3450354328e+02 1.3450953890e+02 1.2700000000e+00 0.0000e+00 -1.0000e+00
      -13  1    1    2    0    0 +5.5959950774e+01 -5.9835905241e+01 +4.4682284761e+01 9.3318644343e+01 1.0566000000e-01 0.0000e+00 1.0000e+00
       13  1    1    2    0    0 -3.6554489647e+01 +1.7020732116e+01 +5.8933059938e+01 7.1407651921e+01 1.0566000000e-01 0.0000e+00 -1.0000e+00
    10002  1    1    2    0    0 -3.2085617002e+01 -5.8221569565e+01 +2.9096088775e+02 3.1476574811e+02 1.0000000000e+02 0.0000e+00 0.0000e+00
   -10002  1    1    2    0    0 +1.2680155875e+01 +1.0103674269e+02 -3.6728078432e+01 1.4737082979e+02 1.0000000000e+02 0.0000e+00 0.0000e+00
<mgrwt>
<rscale>  0 0.51468608E+03</rscale>
<asrwt>0</asrwt>
<pdfrwt beam="1">  1        4 0.33626840E-01 0.51468608E+03</pdfrwt>
<pdfrwt beam="2">  1       -4 0.12308888E+00 0.51468608E+03</pdfrwt>
<totfact> 0.83643714E+00</totfact>
</mgrwt>
</event>
<event>
 6      1 +2.6141198e-09 3.71018000e+02 7.81860800e-03 1.05430400e-01
        4 -1    0    0  501    0 +0.0000000000e+00 +0.0000000000e+00 +1.5944710154e+02 1.5945215925e+02 1.2700000000e+00 0.0000e+00 -1.0000e+00
       -4 -1    0    0    0  501 -0.0000000000e+00 -0.0000000000e+00 -2.1582038053e+02 2.1582411717e+02 1.2700000000e+00 0.0000e+00 -1.0000e+00
      -13  1    1    2    0    0 +9.8332299416e+00 +2.1611742056e+01 -2.6015513209e+01 3.5221838359e+01 1.0566000000e-01 0.0000e+00 1.0000e+00
       13  1    1    2    0    0 -4.1761546540e+01 -2.2153525178e+01 +4.9058553043e+01 6.8128982364e+01 1.0566000000e-01 0.0000e+00 -1.0000e+00
    10002  1    1    2    0    0 -6.4070479712e+01 +4.7449567948e+00 -5.5560086122e+01 1.3120390297e+02 1.0000000000e+02 0.0000e+00 0.0000e+00
   -10002  1    1    2    0    0 +9.5998796311e+01 -4.2031736730e+00 -2.3856232707e+01 1.4072155272e+02 1.0000000000e+02 0.0000e+00 0.0000e+00
<mgrwt>
<rscale>  0 0.37101797E+03</rscale>
<asrwt>0</asrwt>
<pdfrwt beam="1">  1        4 0.39862875E-01 0.37101797E+03</pdfrwt>
<pdfrwt beam="2">  1       -4 0.53956194E-01 0.37101797E+03</pdfrwt>
<totfact> 0.38332387E+01</totfact>
</mgrwt>
</event>
<event>
 6      1 +2.6141198e-09 6.15893700e+02 7.81860800e-03 9.87297000e-02
       -4 -1    0    0    0  501 -0.0000000000e+00 +0.0000000000e+00 +3.0261292310e+02 3.0261558805e+02 1.2700000000e+00 0.0000e+00 1.0000e+00
        4 -1    0    0  501    0 +0.0000000000e+00 -0.0000000000e+00 -3.1336945333e+02 3.1337202680e+02 1.2700000000e+00 0.0000e+00 1.0000e+00
      -13  1    1    2    0    0 -1.9167812860e+01 -1.2003600086e+01 -1.0417777782e+01 2.4900456277e+01 1.0566000000e-01 0.0000e+00 -1.0000e+00
       13  1    1    2    0    0 +8.1441655297e+01 +9.2571717796e+00 +5.0532735009e+01 9.6291260862e+01 1.0566000000e-01 0.0000e+00 1.0000e+00
    10002  1    1    2    0    0 -2.3252883286e+01 -2.0070258303e+02 -1.1896041036e+02 2.5489959327e+02 1.0000000000e+02 0.0000e+00 0.0000e+00
   -10002  1    1    2    0    0 -3.9020959151e+01 +2.0344901133e+02 +6.8088922896e+01 2.3989630445e+02 1.0000000000e+02 0.0000e+00 0.0000e+00
<mgrwt>
<rscale>  0 0.61589369E+03</rscale>
<asrwt>0</asrwt>
<pdfrwt beam="1">  1        4 0.78343018E-01 0.61589369E+03</pdfrwt>
<pdfrwt beam="2">  1       -4 0.75653885E-01 0.61589369E+03</pdfrwt>
<totfact> 0.44893729E+00</totfact>
</mgrwt>
</event>
<event>
 6      1 +2.6141198e-09 5.19852900e+02 7.81860800e-03 1.00872300e-01
       -4 -1    0    0    0  501 -0.0000000000e+00 +0.0000000000e+00 +1.3732580385e+02 1.3733167626e+02 1.2700000000e+00 0.0000e+00 -1.0000e+00
        4 -1    0    0  501    0 +0.0000000000e+00 -0.0000000000e+00 -4.9196439488e+02 4.9196603412e+02 1.2700000000e+00 0.0000e+00 -1.0000e+00
      -13  1    1    2    0    0 -1.2194832957e+01 -3.4291440258e+01 -2.0662927789e+01 4.1851936331e+01 1.0566000000e-01 0.0000e+00 -1.0000e+00
       13  1    1    2    0    0 -2.6707852622e+01 +5.4471004513e+01 -1.2259030324e+02 1.3678009115e+02 1.0566000000e-01 0.0000e+00 1.0000e+00
    10002  1    1    2    0    0 +3.6419427321e+01 -6.3754279336e+01 +7.4469542512e+01 1.4469518161e+02 1.0000000000e+02 0.0000e+00 0.0000e+00
   -10002  1    1    2    0    0 +2.4832582581e+00 +4.3574715080e+01 -2.8585490251e+02 3.0597050128e+02 1.0000000000e+02 0.0000e+00 0.0000e+00
<mgrwt>
<rscale>  0 0.51985294E+03</rscale>
<asrwt>0</asrwt>
<pdfrwt beam="1">  1        4 0.12299203E+00 0.51985294E+03</pdfrwt>
<pdfrwt beam="2">  1       -4 0.34332391E-01 0.51985294E+03</pdfrwt>
<totfact> 0.80482812E+00</totfact>
</mgrwt>
</event>
<event>
 6      1 +2.6141198e-09 4.71134100e+02 7.81860800e-03 1.02160100e-01
        4 -1    0    0  501    0 +0.0000000000e+00 +0.0000000000e+00 +3.4113956549e+02 3.4114192947e+02 1.2700000000e+00 0.0000e+00 -1.0000e+00
       -4 -1    0    0    0  501 -0.0000000000e+00 -0.0000000000e+00 -1.6266070332e+02 1.6266566111e+02 1.2700000000e+00 0.0000e+00 -1.0000e+00
      -13  1    1    2    0    0 +4.2908384593e+01 -5.0207975368e+01 +8.8721385328e+01 1.1060499825e+02 1.0566000000e-01 0.0000e+00 -1.0000e+00
       13  1    1    2    0    0 -3.9438102718e+01 +1.6660525333e+01 +8.8436466645e+01 9.8254551279e+01 1.0566000000e-01 0.0000e+00 1.0000e+00
    10002  1    1    2    0    0 -9.8532233047e+00 -1.9977013685e+01 -9.9678013119e+01 1.4294010419e+02 1.0000000000e+02 0.0000e+00 0.0000e+00
   -10002  1    1    2    0    0 +6.3829414293e+00 +5.3524463720e+01 +1.0099902332e+02 1.5200793686e+02 1.0000000000e+02 0.0000e+00 0.0000e+00
<mgrwt>
<rscale>  0 0.47113415E+03</rscale>
<asrwt>0</asrwt>
<pdfrwt beam="1">  1        4 0.85285806E-01 0.47113415E+03</pdfrwt>
<pdfrwt beam="2">  1       -4 0.40666091E-01 0.47113415E+03</pdfrwt>
<totfact> 0.13710798E+01</totfact>
</mgrwt>
</event>
<event>
 6      1 +2.6141198e-09 5.59054300e+02 7.81860800e-03 9.99419700e-02
        4 -1    0    0  501    0 +0.0000000000e+00 +0.0000000000e+00 +1.2151886246e+02 1.2152549869e+02 1.2700000000e+00 0.0000e+00 -1.0000e+00
       -4 -1    0    0    0  501 -0.0000000000e+00 -0.0000000000e+00 -6.4296537147e+02 6.4296662573e+02 1.2700000000e+00 0.0000e+00 -1.0000e+00
      -13  1    1    2    0    0 +7.2270574164e+00 +2.1163455124e+01 +1.4588644782e+01 2.6701346638e+01 1.0566000000e-01 0.0000e+00 -1.0000e+00
       13  1    1    2    0    0 -4.3329531252e+00 -8.1386950607e+01 -8.7204541541e+01 1.1936185924e+02 1.0566000000e-01 0.0000e+00 1.0000e+00
    10002  1    1    2    0    0 +7.3615088258e+01 -1.0588658677e+02 -5.3888047942e+01 1.7185770913e+02 1.0000000000e+02 0.0000e+00 0.0000e+00
   -10002  1    1    2    0    0 -7.6509192549e+01 +1.6611008226e+02 -3.9494256431e+02 4.4657120941e+02 1.0000000000e+02 0.0000e+00 0.0000e+00
<mgrwt>
<rscale>  0 0.55905433E+03</rscale>
<asrwt>0</asrwt>
<pdfrwt beam="1">  1        4 0.30380704E-01 0.55905433E+03</pdfrwt>
<pdfrwt beam="2">  1       -4 0.16074232E+00 0.55905433E+03</pdfrwt>
<totfact> 0.51140166E+00</totfact>
</mgrwt>
</event>
<event>
 6      1 +2.6141198e-09 6.79050500e+02 7.81860800e-03 9.75374500e-02
        4 -1    0    0  501    0 +0.0000000000e+00 +0.0000000000e+00 +3.3966158763e+02 3.3966396190e+02 1.2700000000e+00 0.0000e+00 -1.0000e+00
       -4 -1    0    0    0  501 -0.0000000000e+00 -0.0000000000e+00 -3.3938420290e+02 3.3938657911e+02 1.2700000000e+00 0.0000e+00 -1.0000e+00
      -13  1    1    2    0    0 -3.5564898986e+01 +6.2568676178e+01 +8.6672110733e+01 1.1265774373e+02 1.0566000000e-01 0.0000e+00 1.0000e+00
       13  1    1    2    0    0 +1.3735862776e+01 -5.2943846957e+00 -1.1119989433e+01 1.8449112838e+01 1.0566000000e-01 0.0000e+00 -1.0000e+00
    10002  1    1    2    0    0 -6.0540499246e+01 -2.6672092639e+02 -7.8634741300e+01 3.0164321169e+02 1.0000000000e+02 0.0000e+00 0.0000e+00
   -10002  1    1    2    0    0 +8.2369535456e+01 +2.0944663490e+02 +3.3600047291e+00 2.4630047275e+02 1.0000000000e+02 0.0000e+00 0.0000e+00
<mgrwt>
<rscale>  0 0.67905048E+03</rscale>
<asrwt>0</asrwt>
<pdfrwt beam="1">  1        4 0.84915991E-01 0.67905048E+03</pdfrwt>
<pdfrwt beam="2">  1       -4 0.84846645E-01 0.67905048E+03</pdfrwt>
<totfact> 0.28812280E+00</totfact>
</mgrwt>
</event>
<event>
 6      1 +2.6141198e-09 4.65588600e+02 7.81860800e-03 1.02317300e-01
       -4 -1    0    0    0  501 -0.0000000000e+00 +0.0000000000e+00 +4.1218422691e+02 4.1218618343e+02 1.2700000000e+00 0.0000e+00 1.0000e+00
        4 -1    0    0  501    0 +0.0000000000e+00 -0.0000000000e+00 -1.3147274186e+02 1.3147887569e+02 1.2700000000e+00 0.0000e+00 1.0000e+00
      -13  1    1    2    0    0 +3.7376780315e+00 +8.4075260231e+01 -2.6580258937e+01 8.8256109982e+01 1.0566000000e-01 0.0000e+00 1.0000e+00
       13  1    1    2    0    0 +4.7826786077e+01 -1.2472986901e+01 +1.0417062867e+01 5.0512406709e+01 1.0566000000e-01 0.0000e+00 -1.0000e+00
    10002  1    1    2    0    0 -6.2002088371e+01 -1.1032400376e+02 +1.3442902226e+02 2.0996858526e+02 1.0000000000e+02 0.0000e+00 0.0000e+00
   -10002  1    1    2    0    0 +1.0437624262e+01 +3.8721730431e+01 +1.6244565885e+02 1.9492795717e+02 1.0000000000e+02 0.0000e+00 0.0000e+00
<mgrwt>
<rscale>  0 0.46558862E+03</rscale>
<asrwt>0</asrwt>
<pdfrwt beam="1">  1        4 0.32869197E-01 0.46558862E+03</pdfrwt>
<pdfrwt beam="2">  1       -4 0.10304707E+00 0.46558862E+03</pdfrwt>
<totfact> 0.13430590E+01</totfact>
</mgrwt>
</event>
<event>
 6      1 +2.6141198e-09 3.46581500e+02 7.81860800e-03 1.06402700e-01
        4 -1    0    0  501    0 +0.0000000000e+00 +0.0000000000e+00 +5.0261831030e+01 5.0277873448e+01 1.2700000000e+00 0.0000e+00 1.0000e+00
       -4 -1    0    0    0  501 -0.0000000000e+00 -0.0000000000e+00 -5.9735300649e+02 5.9735435653e+02 1.2700000000e+00 0.0000e+00 1.0000e+00
      -13  1    1    2    0    0 +1.7169607629e+01 -2.1885013547e+01 -1.6522174862e+02 1.6754696842e+02 1.0566000000e-01 0.0000e+00 1.0000e+00
       13  1    1    2    0    0 -4.1653235663e+01 +6.8293362800e+00 -2.7762929248e+01 5.0521513038e+01 1.0566000000e-01 0.0000e+00 -1.0000e+00
    10002  1    1    2    0    0 +6.0000740939e+01 -1.6858593731e+01 -1.0876307311e+02 1.6035494121e+02 1.0000000000e+02 0.0000e+00 0.0000e+00
   -10002  1    1    2    0    0 -3.5517112906e+01 +3.1914270998e+01 -2.4534342447e+02 2.6920880731e+02 1.0000000000e+02 0.0000e+00 0.0000e+00
<mgrwt>
<rscale>  0 0.34658152E+03</rscale>
<asrwt>0</asrwt>
<pdfrwt beam="1">  1        4 0.12567634E-01 0.34658152E+03</pdfrwt>
<pdfrwt beam="2">  1       -4 0.14934040E+00 0.34658152E+03</pdfrwt>
<totfact> 0.30742312E+01</totfact>
</mgrwt>
</event>
<event>
 6      1 +2.6141198e-09 1.13503300e+03 7.81860800e-03 9.17170300e-02
        4 -1    0    0  501    0 +0.0000000000e+00 +0.0000000000e+00 +8.2997923218e+02 8.2998020383e+02 1.2700000000e+00 0.0000e+00 1.0000e+00
       -4 -1    0    0    0  501 -0.0000000000e+00 -0.0000000000e+00 -3.8804979089e+02 3.8805186910e+02 1.2700000000e+00 0.0000e+00 1.0000e+00
      -13  1    1    2    0    0 +2.7374159195e+00 -1.1332481665e+02 -6.3603415266e+01 1.2998235693e+02 1.0566000000e-01 0.0000e+00 -1.0000e+00
       13  1    1    2    0    0 +1.4108867562e+01 +1.5207910831e+01 -3.6986259376e+01 4.2406782977e+01 1.0566000000e-01 0.0000e+00 1.0000e+00
    10002  1    1    2    0    0 -3.2814250396e+02 -2.3501588785e+02 +1.7330241562e+02 4.5049272770e+02 1.0000000000e+02 0.0000e+00 0.0000e+00
   -10002  1    1    2    0    0 +3.1129622048e+02 +3.3313279367e+02 +3.6921670031e+02 5.9515020532e+02 1.0000000000e+02 0.0000e+00 0.0000e+00
<mgrwt>
<rscale>  0 0.11350333E+04</rscale>
<asrwt>0</asrwt>
<pdfrwt beam="1">  1        4 0.20749519E+00 0.11350333E+04</pdfrwt>
<pdfrwt beam="2">  1       -4 0.97012830E-01 0.11350333E+04</pdfrwt>
<totfact> 0.20090092E-01</totfact>
</mgrwt>
</event>
<event>
 6      1 +2.6141198e-09 6.54567700e+02 7.81860800e-03 9.79824600e-02
        4 -1    0    0  501    0 +0.0000000000e+00 +0.0000000000e+00 +2.0596989886e+02 2.0597381420e+02 1.2700000000e+00 0.0000e+00 -1.0000e+00
       -4 -1    0    0    0  501 -0.0000000000e+00 -0.0000000000e+00 -5.2004073882e+02 5.2004228956e+02 1.2700000000e+00 0.0000e+00 -1.0000e+00
      -13  1    1    2    0    0 +2.8074489671e+01 +5.6701355049e+01 -1.5092612612e+02 1.6365184797e+02 1.0566000000e-01 0.0000e+00 1.0000e+00
       13  1    1    2    0    0 -2.4132900941e+01 -2.6418924309e+01 -3.4516607106e+01 4.9716836179e+01 1.0566000000e-01 0.0000e+00 -1.0000e+00
    10002  1    1    2    0    0 -1.0464594996e+02 +1.2300038223e+02 +9.0064912882e+01 2.1021788079e+02 1.0000000000e+02 0.0000e+00 0.0000e+00
   -10002  1    1    2    0    0 +1.0070436123e+02 -1.5328281297e+02 -2.1869301962e+02 3.0242953882e+02 1.0000000000e+02 0.0000e+00 0.0000e+00
<mgrwt>
<rscale>  0 0.65456771E+03</rscale>
<asrwt>0</asrwt>
<pdfrwt beam="1">  1        4 0.51493159E-01 0.65456771E+03</pdfrwt>
<pdfrwt beam="2">  1       -4 0.13001087E+00 0.65456771E+03</pdfrwt>
<totfact> 0.30850505E+00</totfact>
</mgrwt>
</event>
<event>
 6      1 +2.6141198e-09 5.68657000e+02 7.81860800e-03 9.97265500e-02
       -4 -1    0    0    0  501 -0.0000000000e+00 +0.0000000000e+00 +1.8884626620e+02 1.8885053656e+02 1.2700000000e+00 0.0000e+00 1.0000e+00
        4 -1    0    0  501    0 +0.0000000000e+00 -0.0000000000e+00 -4.2807724243e+02 4.2807912632e+02 1.2700000000e+00 0.0000e+00 1.0000e+00
      -13  1    1    2    0    0 -3.3850275976e+01 +3.5754717337e+01 +2.1308731575e+01 5.3649922655e+01 1.0566000000e-01 0.0000e+00 -1.0000e+00
       13  1    1    2    0    0 +3.2897223302e+01 +6.4778079094e+00 -4.5368022155e+01 5.6413277645e+01 1.0566000000e-01 0.0000e+00 1.0000e+00
    10002  1    1    2    0    0 +3.4576268770e+01 +1.8179276605e+02 -1.1519846945e+02 2.3982246666e+02 1.0000000000e+02 0.0000e+00 0.0000e+00
   -10002  1    1    2    0    0 -3.3623216096e+01 -2.2402529129e+02 -9.9973216200e+01 2.6704399592e+02 1.0000000000e+02 0.0000e+00 0.0000e+00
<mgrwt>
<rscale>  0 0.56865697E+03</rscale>
<asrwt>0</asrwt>
<pdfrwt beam="1">  1        4 0.10702008E+00 0.56865697E+03</pdfrwt>
<pdfrwt beam="2">  1       -4 0.47212337E-01 0.56865697E+03</pdfrwt>
<totfact> 0.59691393E+00</totfact>
</mgrwt>
</event>
<event>
 6      1 +2.6141198e-09 3.38341200e+02 7.81860800e-03 1.06750500e-01
        4 -1    0    0  501    0 +0.0000000000e+00 +0.0000000000e+00 +2.9923905629e+02 2.9924175128e+02 1.2700000000e+00 0.0000e+00 -1.0000e+00
       -4 -1    0    0    0  501 -0.0000000000e+00 -0.0000000000e+00 -9.5630897985e+01 9.5639330557e+01 1.2700000000e+00 0.0000e+00 -1.0000e+00
      -13  1    1    2    0    0 -1.6865022030e+01 -2.1376854049e+01 +6.7463189317e+01 7.2750889575e+01 1.0566000000e-01 0.0000e+00 1.0000e+00
       13  1    1    2    0    0 +2.8488923633e+01 +2.9589448951e+01 -2.0185966626e+01 4.5767222678e+01 1.0566000000e-01 0.0000e+00 -1.0000e+00
    10002  1    1    2    0    0 +4.4167808439e+01 -7.3271974447e+00 +1.0167815866e+02 1.4947551998e+02 1.0000000000e+02 0.0000e+00 0.0000e+00
   -10002  1    1    2    0    0 -5.5791710042e+01 -8.8539745751e-01 +5.4652776949e+01 1.2688744960e+02 1.0000000000e+02 0.0000e+00 0.0000e+00
<mgrwt>
<rscale>  0 0.33834123E+03</rscale>
<asrwt>0</asrwt>
<pdfrwt beam="1">  1        4 0.74811154E-01 0.33834123E+03</pdfrwt>
<pdfrwt beam="2">  1       -4 0.23909116E-01 0.33834123E+03</pdfrwt>
<totfact> 0.50396886E+01</totfact>
</mgrwt>
</event>
<event>
 6      1 +2.6141198e-09 4.48551000e+02 7.81860800e-03 1.02815500e-01
        4 -1    0    0  501    0 +0.0000000000e+00 +0.0000000000e+00 +5.7501239199e+02 5.7501379448e+02 1.2700000000e+00 0.0000e+00 1.0000e+00
       -4 -1    0    0    0  501 -0.0000000000e+00 -0.0000000000e+00 -8.7469372582e+01 8.7478591895e+01 1.2700000000e+00 0.0000e+00 1.0000e+00
      -13  1    1    2    0    0 +7.6222542012e+00 -2.0068834728e+01 +6.5575754413e+00 2.2447045377e+01 1.0566000000e-01 0.0000e+00 1.0000e+00
       13  1    1    2    0    0 -1.1158387296e+02 +3.9800151766e+01 +7.3836485576e+01 1.3959530992e+02 1.0566000000e-01 0.0000e+00 -1.0000e+00
    10002  1    1    2    0    0 +1.3332822207e+02 +3.8321637498e+01 +2.5656811754e+02 3.0833773956e+02 1.0000000000e+02 0.0000e+00 0.0000e+00
   -10002  1    1    2    0    0 -2.9366603317e+01 -5.8052954535e+01 +1.5058084085e+02 1.9211229152e+02 1.0000000000e+02 0.0000e+00 0.0000e+00
<mgrwt>
<rscale>  0 0.44855096E+03</rscale>
<asrwt>0</asrwt>
<pdfrwt beam="1">  1        4 0.14375442E+00 0.44855096E+03</pdfrwt>
<pdfrwt beam="2">  1       -4 0.21868671E-01 0.44855096E+03</pdfrwt>
<totfact> 0.12732248E+01</totfact>
</mgrwt>
</event>
<event>
 6      1 +2.6141198e-09 4.28439400e+02 7.81860800e-03 1.03435400e-01
        4 -1    0    0  501    0 +0.0000000000e+00 +0.0000000000e+00 +6.5488966169e+02 6.5489089312e+02 1.2700000000e+00 0.0000e+00 -1.0000e+00
       -4 -1    0    0    0  501 -0.0000000000e+00 -0.0000000000e+00 -7.0065957333e+01 7.0077466257e+01 1.2700000000e+00 0.0000e+00 -1.0000e+00
      -13  1    1    2    0    0 +5.5382219601e+01 -1.9979297497e+01 +4.1149512011e+01 7.1830746058e+01 1.0566000000e-01 0.0000e+00 1.0000e+00
       13  1    1    2    0    0 -4.1269822424e+01 -6.1978719715e+01 +4.7453718156e+01 8.8297375223e+01 1.0566000000e-01 0.0000e+00 -1.0000e+00
    10002  1    1    2    0    0 +1.4627671338e+01 +9.9639496195e+01 +3.9035474295e+02 4.1535385313e+02 1.0000000000e+02 0.0000e+00 0.0000e+00
   -10002  1    1    2    0    0 -2.8740068516e+01 -1.7681478982e+01 +1.0586573124e+02 1.4948638496e+02 1.0000000000e+02 0.0000e+00 0.0000e+00
<mgrwt>
<rscale>  0 0.42843944E+03</rscale>
<asrwt>0</asrwt>
<pdfrwt beam="1">  1        4 0.16372401E+00 0.42843944E+03</pdfrwt>
<pdfrwt beam="2">  1       -4 0.17518082E-01 0.42843944E+03</pdfrwt>
<totfact> 0.13508240E+01</totfact>
</mgrwt>
</event>
<event>
 6      1 +2.6141198e-09 4.39214100e+02 7.81860800e-03 1.03098800e-01
        4 -1    0    0  501    0 +0.0000000000e+00 +0.0000000000e+00 +5.9772657876e+02 5.9772792795e+02 1.2700000000e+00 0.0000e+00 1.0000e+00
       -4 -1    0    0    0  501 -0.0000000000e+00 -0.0000000000e+00 -8.0678036280e+01 8.0688031566e+01 1.2700000000e+00 0.0000e+00 1.0000e+00
      -13  1    1    2    0    0 +3.4232342996e+01 +1.6232725503e+01 +1.0788548594e+02 1.1434440924e+02 1.0566000000e-01 0.0000e+00 -1.0000e+00
       13  1    1    2    0    0 -5.1760499397e+01 -6.0091549770e+00 +5.2790400757e+01 7.4176120265e+01 1.0566000000e-01 0.0000e+00 1.0000e+00
    10002  1    1    2    0    0 -3.4087593473e+01 -1.3241860157e+02 +1.9488904493e+02 2.5822159070e+02 1.0000000000e+02 0.0000e+00 0.0000e+00
   -10002  1    1    2    0    0 +5.1615749874e+01 +1.2219503104e+02 +1.6148361086e+02 2.3167383931e+02 1.0000000000e+02 0.0000e+00 0.0000e+00
<mgrwt>
<rscale>  0 0.43921409E+03</rscale>
<asrwt>0</asrwt>
<pdfrwt beam="1">  1        4 0.14943306E+00 0.43921409E+03</pdfrwt>
<pdfrwt beam="2">  1       -4 0.20170928E-01 0.43921409E+03</pdfrwt>
<totfact> 0.13345434E+01</totfact>
</mgrwt>
</event>
<event>
 6      1 +2.6141198e-09 3.98557900e+02 7.81860800e-03 1.04428000e-01
       -4 -1    0    0    0  501 -0.0000000000e+00 +0.0000000000e+00 +8.3811175598e+01 8.3820797271e+01 1.2700000000e+00 0.0000e+00 -1.0000e+00
        4 -1    0    0  501    0 +0.0000000000e+00 -0.0000000000e+00 -4.7379046990e+02 4.7379217202e+02 1.2700000000e+00 0.0000e+00 -1.0000e+00
      -13  1    1    2    0    0 -8.9251811645e+00 +3.2824334840e+01 -5.4154964949e+01 6.3952069624e+01 1.0566000000e-01 0.0000e+00 1.0000e+00
       13  1    1    2    0    0 +3.2889566857e+01 -5.0977904605e+01 -7.3064332020e+01 9.4967774237e+01 1.0566000000e-01 0.0000e+00 -1.0000e+00
    10002  1    1    2    0    0 -8.5164608683e+01 -6.9374397133e+01 -1.6859427813e+02 2.2469946188e+02 1.0000000000e+02 0.0000e+00 0.0000e+00
   -10002  1    1    2    0    0 +6.1200222990e+01 +8.7527966897e+01 -9.4165719198e+01 1.7399366355e+02 1.0000000000e+02 0.0000e+00 0.0000e+00
<mgrwt>
<rscale>  0 0.39855787E+03</rscale>
<asrwt>0</asrwt>
<pdfrwt beam="1">  1        4 0.11844903E+00 0.39855787E+03</pdfrwt>
<pdfrwt beam="2">  1       -4 0.20954211E-01 0.39855787E+03</pdfrwt>
<totfact> 0.22319583E+01</totfact>
</mgrwt>
</event>
<event>
 6      1 +2.6141198e-09 4.72033600e+02 7.81860800e-03 1.02134800e-01
       -4 -1    0    0    0  501 -0.0000000000e+00 +0.0000000000e+00 +4.5512530611e+01 4.5530246459e+01 1.2700000000e+00 0.0000e+00 1.0000e+00
        4 -1    0    0  501    0 +0.0000000000e+00 -0.0000000000e+00 -1.2236686791e+03 1.2236693381e+03 1.2700000000e+00 0.0000e+00 1.0000e+00
      -13  1    1    2    0    0 -3.0266295380e+01 +2.1140672313e+01 -3.7568059864e+01 5.2672069903e+01 1.0566000000e-01 0.0000e+00 -1.0000e+00
       13  1    1    2    0    0 -5.2599068040e+01 -9.0870929831e+01 -4.5433283783e+02 4.6630733057e+02 1.0566000000e-01 0.0000e+00 1.0000e+00
    10002  1    1    2    0    0 -1.0249239572e+01 +8.1657739387e+01 -1.5721904660e+02 2.0369305812e+02 1.0000000000e+02 0.0000e+00 0.0000e+00
   -10002  1    1    2    0    0 +9.3114602993e+01 -1.1927481869e+01 -5.2903620420e+02 5.4652712601e+02 1.0000000000e+02 0.0000e+00 0.0000e+00
<mgrwt>
<rscale>  0 0.47203355E+03</rscale>
<asrwt>0</asrwt>
<pdfrwt beam="1">  1        4 0.30591936E+00 0.47203355E+03</pdfrwt>
<pdfrwt beam="2">  1       -4 0.11380434E-01 0.47203355E+03</pdfrwt>
<totfact> 0.37203428E+00</totfact>
</mgrwt>
</event>
<event>
 6      1 +2.6141198e-09 3.37695800e+02 7.81860800e-03 1.06778200e-01
       -4 -1    0    0    0  501 -0.0000000000e+00 +0.0000000000e+00 +3.7144373971e+02 3.7144591083e+02 1.2700000000e+00 0.0000e+00 1.0000e+00
        4 -1    0    0  501    0 +0.0000000000e+00 -0.0000000000e+00 -7.6745889596e+01 7.6756396931e+01 1.2700000000e+00 0.0000e+00 1.0000e+00
      -13  1    1    2    0    0 -8.2296130301e+01 +4.0256289502e+00 +4.6274848387e+01 9.4499902159e+01 1.0566000000e-01 0.0000e+00 1.0000e+00
       13  1    1    2    0    0 +3.0910913732e+01 +7.2517795356e+00 +1.8186501464e+01 3.6590065506e+01 1.0566000000e-01 0.0000e+00 -1.0000e+00
    10002  1    1    2    0    0 +2.3854817081e+01 -3.3869751559e+01 +8.7240894501e+01 1.3902225017e+02 1.0000000000e+02 0.0000e+00 0.0000e+00
   -10002  1    1    2    0    0 +2.7530399487e+01 +2.2592343073e+01 +1.4299560576e+02 1.7809008992e+02 1.0000000000e+02 0.0000e+00 0.0000e+00
<mgrwt>
<rscale>  0 0.33769585E+03</rscale>
<asrwt>0</asrwt>
<pdfrwt beam="1">  1        4 0.19188058E-01 0.33769585E+03</pdfrwt>
<pdfrwt beam="2">  1       -4 0.92862517E-01 0.33769585E+03</pdfrwt>
<totfact> 0.46279123E+01</totfact>
</mgrwt>
</event>
<event>
 6      1 +2.6141198e-09 3.44061900e+02 7.81860800e-03 1.06507900e-01
        4 -1    0    0  501    0 +0.0000000000e+00 +0.0000000000e+00 +5.1694270768e+02 5.1694426771e+02 1.2700000000e+00 0.0000e+00 1.0000e+00
       -4 -1    0    0    0  501 -0.0000000000e+00 -0.0000000000e+00 -5.7240698613e+01 5.7254785631e+01 1.2700000000e+00 0.0000e+00 1.0000e+00
      -13  1    1    2    0    0 -2.1939363837e+01 -3.5271798582e+01 +4.9398696725e+01 6.4542062741e+01 1.0566000000e-01 0.0000e+00 -1.0000e+00
       13  1    1    2    0    0 +5.9082675570e+00 +2.6848490218e+01 -1.5221294402e+01 3.1423685650e+01 1.0566000000e-01 0.0000e+00 1.0000e+00
    10002  1    1    2    0    0 +4.8664532584e+01 -5.5139566493e+00 +1.9742853628e+02 2.2666421726e+02 1.0000000000e+02 0.0000e+00 0.0000e+00
   -10002  1    1    2    0    0 -3.2633436304e+01 +1.3937265013e+01 +2.2809607047e+02 2.5156908769e+02 1.0000000000e+02 0.0000e+00 0.0000e+00
<mgrwt>
<rscale>  0 0.34406194E+03</rscale>
<asrwt>0</asrwt>
<pdfrwt beam="1">  1        4 0.12923763E+00 0.34406194E+03</pdfrwt>
<pdfrwt beam="2">  1       -4 0.14312131E-01 0.34406194E+03</pdfrwt>
<totfact> 0.35379442E+01</totfact>
</mgrwt>
</event>
<event>
 6      1 +2.6141198e-09 4.26911800e+02 7.81860800e-03 1.03484000e-01
       -4 -1    0    0    0  501 -0.0000000000e+00 +0.0000000000e+00 +3.1040559070e+02 3.1040818875e+02 1.2700000000e+00 0.0000e+00 -1.0000e+00
        4 -1    0    0  501    0 +0.0000000000e+00 -0.0000000000e+00 -1.4678076003e+02 1.4678625418e+02 1.2700000000e+00 0.0000e+00 -1.0000e+00
      -13  1    1    2    0    0 -2.5274543188e+01 +1.3407419349e+01 +6.0471212543e+01 6.6897983059e+01 1.0566000000e-01 0.0000e+00 -1.0000e+00
       13  1    1    2    0    0 +4.5730163058e+01 +3.2067284005e+01 +1.1950237086e+01 5.7117228988e+01 1.0566000000e-01 0.0000e+00 1.0000e+00
    10002  1    1    2    0    0 +7.0147277341e+00 +9.3662180695e+01 +1.1525573375e-01 1.3719265207e+02 1.0000000000e+02 0.0000e+00 0.0000e+00
   -10002  1    1    2    0    0 -2.7470347604e+01 -1.3913688405e+02 +9.1088125310e+01 1.9598657881e+02 1.0000000000e+02 0.0000e+00 0.0000e+00
<mgrwt>
<rscale>  0 0.42691179E+03</rscale>
<asrwt>0</asrwt>
<pdfrwt beam="1">  1        4 0.36696202E-01 0.42691179E+03</pdfrwt>
<pdfrwt beam="2">  1       -4 0.77602409E-01 0.42691179E+03</pdfrwt>
<totfact> 0.20741594E+01</totfact>
</mgrwt>
</event>
<event>
 6      1 +2.6141198e-09 4.79056500e+02 7.81860800e-03 1.01939500e-01
        4 -1    0    0  501    0 +0.0000000000e+00 +0.0000000000e+00 +2.2649090962e+02 2.2649447022e+02 1.2700000000e+00 0.0000e+00 -1.0000e+00
       -4 -1    0    0    0  501 -0.0000000000e+00 -0.0000000000e+00 -2.5330888991e+02 2.5331207356e+02 1.2700000000e+00 0.0000e+00 -1.0000e+00
      -13  1    1    2    0    0 +1.1216109721e+01 -1.7432355140e+00 -2.0158344342e+01 2.3134606069e+01 1.0566000000e-01 0.0000e+00 -1.0000e+00
       13  1    1    2    0    0 -5.2861642022e+01 +2.6149861671e+01 +1.5128276748e+01 6.0885502248e+01 1.0566000000e-01 0.0000e+00 1.0000e+00
    10002  1    1    2    0    0 -2.8642217436e+01 +1.4897488939e+02 -2.6373002431e+01 1.8360127871e+02 1.0000000000e+02 0.0000e+00 0.0000e+00
   -10002  1    1    2    0    0 +7.0287749737e+01 -1.7338151555e+02 +4.5850897302e+00 2.1218515675e+02 1.0000000000e+02 0.0000e+00 0.0000e+00
<mgrwt>
<rscale>  0 0.47905648E+03</rscale>
<asrwt>0</asrwt>
<pdfrwt beam="1">  1        4 0.56623571E-01 0.47905648E+03</pdfrwt>
<pdfrwt beam="2">  1       -4 0.63328065E-01 0.47905648E+03</pdfrwt>
<totfact> 0.13429910E+01</totfact>
</mgrwt>
</event>
<event>
 6      1 +2.6141198e-09 4.55432300e+02 7.81860800e-03 1.02611400e-01
       -4 -1    0    0    0  501 -0.0000000000e+00 +0.0000000000e+00 +6.9714321518e+01 6.9725888483e+01 1.2700000000e+00 0.0000e+00 -1.0000e+00
        4 -1    0    0  501    0 +0.0000000000e+00 -0.0000000000e+00 -7.4374233579e+02 7.4374342011e+02 1.2700000000e+00 0.0000e+00 -1.0000e+00
      -13  1    1    2    0    0 -2.0399315736e+01 +6.0390801114e+00 -2.0175149453e+01 2.9319795200e+01 1.0566000000e-01 0.0000e+00 1.0000e+00
       13  1    1    2    0    0 +4.6625806732e+01 -8.3280343425e+01 -2.6568605953e+02 2.8230953729e+02 1.0566000000e-01 0.0000e+00 -1.0000e+00
    10002  1    1    2    0    0 -6.3332188692e+01 +1.0174286954e+02 -8.1190698232e+01 1.7593893005e+02 1.0000000000e+02 0.0000e+00 0.0000e+00
   -10002  1    1    2    0    0 +3.7105697696e+01 -2.4501606227e+01 -3.0697610706e+02 3.2590104605e+02 1.0000000000e+02 0.0000e+00 0.0000e+00
<mgrwt>
<rscale>  0 0.45543227E+03</rscale>
<asrwt>0</asrwt>
<pdfrwt beam="1">  1        4 0.18593714E+00 0.45543227E+03</pdfrwt>
<pdfrwt beam="2">  1       -4 0.17430164E-01 0.45543227E+03</pdfrwt>
<totfact> 0.95843892E+00</totfact>
</mgrwt>
</event>
<event>
 6      1 +2.6141198e-09 3.52947100e+02 7.81860800e-03 1.06141200e-01
       -4 -1    0    0    0  501 -0.0000000000e+00 +0.0000000000e+00 +2.1117653901e+02 2.1118035782e+02 1.2700000000e+00 0.0000e+00 -1.0000e+00
        4 -1    0    0  501    0 +0.0000000000e+00 -0.0000000000e+00 -1.4746550552e+02 1.4747097416e+02 1.2700000000e+00 0.0000e+00 -1.0000e+00
      -13  1    1    2    0    0 +6.3401863856e-01 -1.9133740180e+01 +3.2356854512e+01 3.7596265650e+01 1.0566000000e-01 0.0000e+00 -1.0000e+00
       13  1    1    2    0    0 -1.3261198989e+01 -1.5507040132e+01 -5.9609576886e+01 6.3005083230e+01 1.0566000000e-01 0.0000e+00 1.0000e+00
    10002  1    1    2    0    0 -1.8576029435e+00 +8.1919512419e+01 +3.9415835572e+01 1.3515866712e+02 1.0000000000e+02 0.0000e+00 0.0000e+00
   -10002  1    1    2    0    0 +1.4484783294e+01 -4.7278732107e+01 +5.1547920292e+01 1.2289131598e+02 1.0000000000e+02 0.0000e+00 0.0000e+00
<mgrwt>
<rscale>  0 0.35294714E+03</rscale>
<asrwt>0</asrwt>
<pdfrwt beam="1">  1        4 0.36867537E-01 0.35294714E+03</pdfrwt>
<pdfrwt beam="2">  1       -4 0.52795295E-01 0.35294714E+03</pdfrwt>
<totfact> 0.46674302E+01</totfact>
</mgrwt>
</event>
<event>
 6      1 +2.6141198e-09 3.54568100e+02 7.81860800e-03 1.06075600e-01
        4 -1    0    0  501    0 +0.0000000000e+00 +0.0000000000e+00 +3.4159555150e+01 3.4183155326e+01 1.2700000000e+00 0.0000e+00 1.0000e+00
       -4 -1    0    0    0  501 -0.0000000000e+00 -0.0000000000e+00 -9.1974171617e+02 9.1974259299e+02 1.2700000000e+00 0.0000e+00 1.0000e+00
      -13  1    1    2    0    0 -2.4398871927e+01 -4.2586306604e+01 -2.3710014921e+02 2.4212680640e+02 1.0566000000e-01 0.0000e+00 -1.0000e+00
       13  1    1    2    0    0 +2.2387755506e+01 -1.9127443090e+01 -1.2964825170e+01 3.2174035051e+01 1.0566000000e-01 0.0000e+00 1.0000e+00
    10002  1    1    2    0    0 +5.8898194846e+01 +2.0086043031e+01 -3.3798632562e+02 3.5792066549e+02 1.0000000000e+02 0.0000e+00 0.0000e+00
   -10002  1    1    2    0    0 -5.6887078425e+01 +4.1627706663e+01 -2.9753086103e+02 3.2170424137e+02 1.0000000000e+02 0.0000e+00 0.0000e+00
<mgrwt>
<rscale>  0 0.35456814E+03</rscale>
<asrwt>0</asrwt>
<pdfrwt beam="1">  1        4 0.85429514E-02 0.35456814E+03</pdfrwt>
<pdfrwt beam="2">  1       -4 0.22993841E+00 0.35456814E+03</pdfrwt>
<totfact> 0.17338327E+01</totfact>
</mgrwt>
</event>
<event>
 6      1 +2.6141198e-09 4.00888100e+02 7.81860800e-03 1.04347300e-01
        4 -1    0    0  501    0 +0.0000000000e+00 +0.0000000000e+00 +4.0667325815e+01 4.0687151398e+01 1.2700000000e+00 0.0000e+00 1.0000e+00
       -4 -1    0    0    0  501 -0.0000000000e+00 -0.0000000000e+00 -9.8770228305e+02 9.8770309954e+02 1.2700000000e+00 0.0000e+00 1.0000e+00
      -13  1    1    2    0    0 +1.3325032092e+01 +2.0607178489e+01 -7.9081782932e+01 8.2801883079e+01 1.0566000000e-01 0.0000e+00 -1.0000e+00
       13  1    1    2    0    0 -6.1625672292e+01 -7.1212438985e+01 -4.5774140043e+02 4.6732872347e+02 1.0566000000e-01 0.0000e+00 1.0000e+00
    10002  1    1    2    0    0 +8.4497432504e+01 +9.3680667045e+00 -2.3557218386e+02 2.6966985479e+02 1.0000000000e+02 0.0000e+00 0.0000e+00
   -10002  1    1    2    0    0 -3.6196792304e+01 +4.1237193791e+01 -1.7463959002e+02 2.0858978960e+02 1.0000000000e+02 0.0000e+00 0.0000e+00
<mgrwt>
<rscale>  0 0.40088814E+03</rscale>
<asrwt>0</asrwt>
<pdfrwt beam="1">  1        4 0.10169415E-01 0.40088814E+03</pdfrwt>
<pdfrwt beam="2">  1       -4 0.24692807E+00 0.40088814E+03</pdfrwt>
<totfact> 0.10209001E+01</totfact>
</mgrwt>
</event>
<event>
 6      1 +2.6141198e-09 4.55847100e+02 7.81860800e-03 1.02599300e-01
        4 -1    0    0  501    0 +0.0000000000e+00 +0.0000000000e+00 +6.3579985909e+02 6.3580112749e+02 1.2700000000e+00 0.0000e+00 1.0000e+00
       -4 -1    0    0    0  501 -0.0000000000e+00 -0.0000000000e+00 -8.1700470510e+01 8.1710340726e+01 1.2700000000e+00 0.0000e+00 1.0000e+00
      -13  1    1    2    0    0 +3.9256387036e-01 -1.0476084281e+01 -6.6137070585e+00 1.2395754650e+01 1.0566000000e-01 0.0000e+00 -1.0000e+00
       13  1    1    2    0    0 -8.2599518496e+01 +3.4846443201e+01 +2.6977555317e+02 2.8428122574e+02 1.0566000000e-01 0.0000e+00 1.0000e+00
    10002  1    1    2    0    0 +7.4526766987e+01 +7.1725445231e+01 +7.0329512860e+01 1.6014062217e+02 1.0000000000e+02 0.0000e+00 0.0000e+00
   -10002  1    1    2    0    0 +7.6801876381e+00 -9.6095804150e+01 +2.2060802961e+02 2.6069386565e+02 1.0000000000e+02 0.0000e+00 0.0000e+00
<mgrwt>
<rscale>  0 0.45584710E+03</rscale>
<asrwt>0</asrwt>
<pdfrwt beam="1">  1        4 0.15895135E+00 0.45584710E+03</pdfrwt>
<pdfrwt beam="2">  1       -4 0.20426511E-01 0.45584710E+03</pdfrwt>
<totfact> 0.11085417E+01</totfact>
</mgrwt>
</event>
<event>
 6      1 +2.6141198e-09 7.19996500e+02 7.81860800e-03 9.68363400e-02
        4 -1    0    0  501    0 +0.0000000000e+00 +0.0000000000e+00 +3.0057571255e+02 3.0057839556e+02 1.2700000000e+00 0.0000e+00 -1.0000e+00
       -4 -1    0    0    0  501 -0.0000000000e+00 -0.0000000000e+00 -4.3116284800e+02 4.3116471840e+02 1.2700000000e+00 0.0000e+00 -1.0000e+00
      -13  1    1    2    0    0 -2.2386440638e+01 -1.0145824716e+00 -9.5150426332e+01 9.7753756435e+01 1.0566000000e-01 0.0000e+00 1.0000e+00
       13  1    1    2    0    0 -2.6068390083e+01 -5.8110837320e+01 -9.1047207323e+00 6.4337683197e+01 1.0566000000e-01 0.0000e+00 -1.0000e+00
    10002  1    1    2    0    0 +1.6104343344e+02 +2.0689538093e+02 +1.2782855925e+02 3.0835179043e+02 1.0000000000e+02 0.0000e+00 0.0000e+00
   -10002  1    1    2    0    0 -1.1258860272e+02 -1.4776996114e+02 -1.5416054763e+02 2.6129988389e+02 1.0000000000e+02 0.0000e+00 0.0000e+00
<mgrwt>
<rscale>  0 0.71999652E+03</rscale>
<asrwt>0</asrwt>
<pdfrwt beam="1">  1        4 0.75144498E-01 0.71999652E+03</pdfrwt>
<pdfrwt beam="2">  1       -4 0.10779128E+00 0.71999652E+03</pdfrwt>
<totfact> 0.21614309E+00</totfact>
</mgrwt>
</event>
<event>
 6      1 +2.6141198e-09 5.66919100e+02 7.81860800e-03 9.97651900e-02
        4 -1    0    0  501    0 +0.0000000000e+00 +0.0000000000e+00 +2.0437390439e+02 2.0437785030e+02 1.2700000000e+00 0.0000e+00 1.0000e+00
       -4 -1    0    0    0  501 -0.0000000000e+00 -0.0000000000e+00 -3.9313990809e+02 3.9314195939e+02 1.2700000000e+00 0.0000e+00 1.0000e+00
      -13  1    1    2    0    0 -2.3319393350e+01 -2.7823722515e+00 +4.6565849590e+00 2.3942235674e+01 1.0566000000e-01 0.0000e+00 1.0000e+00
       13  1    1    2    0    0 +8.4617561736e+01 +2.1338982538e+01 -1.5019699214e+01 8.8549909421e+01 1.0566000000e-01 0.0000e+00 -1.0000e+00
    10002  1    1    2    0    0 -1.3826853386e+02 +9.9585967773e+01 -2.3135214804e+02 3.0423571262e+02 1.0000000000e+02 0.0000e+00 0.0000e+00
   -10002  1    1    2    0    0 +7.6970365477e+01 -1.1814257806e+02 +5.2949258592e+01 1.8079195197e+02 1.0000000000e+02 0.0000e+00 0.0000e+00
<mgrwt>
<rscale>  0 0.56691915E+03</rscale>
<asrwt>0</asrwt>
<pdfrwt beam="1">  1        4 0.51094226E-01 0.56691915E+03</pdfrwt>
<pdfrwt beam="2">  1       -4 0.98285725E-01 0.56691915E+03</pdfrwt>
<totfact> 0.62099482E+00</totfact>
</mgrwt>
</event>
<event>
 6      1 +2.6141198e-09 4.41380300e+02 7.81860800e-03 1.03032400e-01
        4 -1    0    0  501    0 +0.0000000000e+00 +0.0000000000e+00 +2.6804030160e+02 2.6804331027e+02 1.2700000000e+00 0.0000e+00 1.0000e+00
       -4 -1    0    0    0  501 -0.0000000000e+00 -0.0000000000e+00 -1.8169829424e+02 1.8170273259e+02 1.2700000000e+00 0.0000e+00 1.0000e+00
      -13  1    1    2    0    0 +3.8615175171e+01 -1.1368079316e+01 +8.5842859221e+01 9.4812302071e+01 1.0566000000e-01 0.0000e+00 1.0000e+00
       13  1    1    2    0    0 -1.7175747050e+01 -5.6091125744e+01 +7.1838364511e+00 5.9100248258e+01 1.0566000000e-01 0.0000e+00 -1.0000e+00
    10002  1    1    2    0    0 +6.6499202025e+01 -3.5431627997e+01 +1.5210259773e+01 1.2613047267e+02 1.0000000000e+02 0.0000e+00 0.0000e+00
   -10002  1    1    2    0    0 -8.7938630147e+01 +1.0289083306e+02 -2.1894948082e+01 1.6970301986e+02 1.0000000000e+02 0.0000e+00 0.0000e+00
<mgrwt>
<rscale>  0 0.44138029E+03</rscale>
<asrwt>0</asrwt>
<pdfrwt beam="1">  1        4 0.67011006E-01 0.44138029E+03</pdfrwt>
<pdfrwt beam="2">  1       -4 0.45425505E-01 0.44138029E+03</pdfrwt>
<totfact> 0.18718928E+01</totfact>
</mgrwt>
</event>
<event>
 6      1 +2.6141198e-09 5.81635900e+02 7.81860800e-03 9.94425500e-02
        4 -1    0    0  501    0 +0.0000000000e+00 +0.0000000000e+00 +4.6187102919e+02 4.6187277524e+02 1.2700000000e+00 0.0000e+00 1.0000e+00
       -4 -1    0    0    0  501 -0.0000000000e+00 -0.0000000000e+00 -1.8310979469e+02 1.8311419883e+02 1.2700000000e+00 0.0000e+00 1.0000e+00
      -13  1    1    2    0    0 -6.8316155268e+00 +4.8742006085e+01 +9.3177511050e+00 5.0092771710e+01 1.0566000000e-01 0.0000e+00 -1.0000e+00
       13  1    1    2    0    0 -1.9394385771e+01 -4.3948312176e+01 +8.3765975655e+01 9.6562654189e+01 1.0566000000e-01 0.0000e+00 1.0000e+00
    10002  1    1    2    0    0 -1.2238862872e+02 +6.8000459746e+01 -6.3091337486e+01 1.8325816716e+02 1.0000000000e+02 0.0000e+00 0.0000e+00
   -10002  1    1    2    0    0 +1.4861463002e+02 -7.2794153655e+01 +2.4876884523e+02 3.1507338101e+02 1.0000000000e+02 0.0000e+00 0.0000e+00
<mgrwt>
<rscale>  0 0.58163594E+03</rscale>
<asrwt>0</asrwt>
<pdfrwt beam="1">  1        4 0.11546853E+00 0.58163594E+03</pdfrwt>
<pdfrwt beam="2">  1       -4 0.45778218E-01 0.58163594E+03</pdfrwt>
<totfact> 0.52906297E+00</totfact>
</mgrwt>
</event>
<event>
 6      1 +2.6141198e-09 5.40312100e+02 7.81860800e-03 1.00376100e-01
       -4 -1    0    0    0  501 -0.0000000000e+00 +0.0000000000e+00 +1.2314383678e+02 1.2315038545e+02 1.2700000000e+00 0.0000e+00 1.0000e+00
        4 -1    0    0  501    0 +0.0000000000e+00 -0.0000000000e+00 -5.9265224132e+02 5.9265360207e+02 1.2700000000e+00 0.0000e+00 1.0000e+00
      -13  1    1    2    0    0 -9.6942303767e+00 +3.3727852511e+01 +1.2359229561e+01 3.7206287869e+01 1.0566000000e-01 0.0000e+00 -1.0000e+00
       13  1    1    2    0    0 -5.7974159000e+00 -5.6269441118e+01 -1.8940492796e+00 5.6599104423e+01 1.0566000000e-01 0.0000e+00 1.0000e+00
    10002  1    1    2    0    0 -1.2571055409e+02 -3.6900859552e+01 -8.2221511137e+01 1.8418793049e+02 1.0000000000e+02 0.0000e+00 0.0000e+00
   -10002  1    1    2    0    0 +1.4120220036e+02 +5.9442448159e+01 -3.9775207369e+02 4.3781066473e+02 1.0000000000e+02 0.0000e+00 0.0000e+00
<mgrwt>
<rscale>  0 0.54031214E+03</rscale>
<asrwt>0</asrwt>
<pdfrwt beam="1">  1        4 0.14816404E+00 0.54031214E+03</pdfrwt>
<pdfrwt beam="2">  1       -4 0.30786949E-01 0.54031214E+03</pdfrwt>
<totfact> 0.61909121E+00</totfact>
</mgrwt>
</event>
<event>
 6      1 +2.6141198e-09 6.89843800e+02 7.81860800e-03 9.73476000e-02
        4 -1    0    0  501    0 +0.0000000000e+00 +0.0000000000e+00 +9.6369009852e+01 9.6377377843e+01 1.2700000000e+00 0.0000e+00 -1.0000e+00
       -4 -1    0    0    0  501 -0.0000000000e+00 -0.0000000000e+00 -1.2344748650e+03 1.2344755182e+03 1.2700000000e+00 0.0000e+00 -1.0000e+00
      -13  1    1    2    0    0 -2.2282815293e+00 +1.1319268326e+01 -2.0164950238e+01 2.3232035127e+01 1.0566000000e-01 0.0000e+00 -1.0000e+00
       13  1    1    2    0    0 +2.0738806280e+02 -1.4042677810e+02 -3.0985658690e+02 3.9842264520e+02 1.0566000000e-01 0.0000e+00 1.0000e+00
    10002  1    1    2    0    0 -1.9960704098e+02 +4.2342838217e+01 -7.0674975080e+02 7.4238204249e+02 1.0000000000e+02 0.0000e+00 0.0000e+00
   -10002  1    1    2    0    0 -5.5527402934e+00 +8.6764671557e+01 -1.0133456716e+02 1.6681617325e+02 1.0000000000e+02 0.0000e+00 0.0000e+00
<mgrwt>
<rscale>  0 0.68984382E+03</rscale>
<asrwt>0</asrwt>
<pdfrwt beam="1">  1        4 0.24093384E-01 0.68984382E+03</pdfrwt>
<pdfrwt beam="2">  1       -4 0.30861979E+00 0.68984382E+03</pdfrwt>
<totfact> 0.91305796E-01</totfact>
</mgrwt>
</event>
<event>
 6      1 +2.6141198e-09 6.15714200e+02 7.81860800e-03 9.87333000e-02
       -4 -1    0    0    0  501 -0.0000000000e+00 +0.0000000000e+00 +3.9288886596e+02 3.9289091857e+02 1.2700000000e+00 0.0000e+00 1.0000e+00
        4 -1    0    0  501    0 +0.0000000000e+00 -0.0000000000e+00 -2.4122414082e+02 2.4122748395e+02 1.2700000000e+00 0.0000e+00 1.0000e+00
      -13  1    1    2    0    0 +1.1531103003e+01 +2.4083691654e+01 +9.3475144163e-01 2.6718448017e+01 1.0566000000e-01 0.0000e+00 -1.0000e+00
       13  1    1    2    0    0 -1.4471892239e+02 +1.5270782485e+01 +5.6530955242e+01 1.5611701816e+02 1.0566000000e-01 0.0000e+00 1.0000e+00
    10002  1    1    2    0    0 +2.5096826995e+02 -7.9667759713e+01 +5.9237371106e+01 2.8782128238e+02 1.0000000000e+02 0.0000e+00 0.0000e+00
   -10002  1    1    2    0    0 -1.1778045056e+02 +4.0313285574e+01 +3.4961647354e+01 1.6346165396e+02 1.0000000000e+02 0.0000e+00 0.0000e+00
<mgrwt>
<rscale>  0 0.61571419E+03</rscale>
<asrwt>0</asrwt>
<pdfrwt beam="1">  1        4 0.60306710E-01 0.61571419E+03</pdfrwt>
<pdfrwt beam="2">  1       -4 0.98222891E-01 0.61571419E+03</pdfrwt>
<totfact> 0.43812942E+00</totfact>
</mgrwt>
</event>
<event>
 6      1 +2.6141198e-09 5.04308600e+02 7.81860800e-03 1.01266000e-01
       -4 -1    0    0    0  501 -0.0000000000e+00 +0.0000000000e+00 +8.0989385239e+02 8.0989484814e+02 1.2700000000e+00 0.0000e+00 -1.0000e+00
        4 -1    0    0  501    0 +0.0000000000e+00 -0.0000000000e+00 -7.8500159581e+01 7.8510432137e+01 1.2700000000e+00 0.0000e+00 -1.0000e+00
      -13  1    1    2    0    0 +1.6467214348e+01 +6.1243799890e-02 +1.6259267150e+01 2.3141906393e+01 1.0566000000e-01 0.0000e+00 1.0000e+00
       13  1    1    2    0    0 -8.2686979948e+01 -3.9723755739e+01 +3.3639640111e+02 3.4867988652e+02 1.0566000000e-01 0.0000e+00 -1.0000e+00
    10002  1    1    2    0    0 +3.2647085732e+01 +1.3309522151e+02 +8.2726833077e+01 1.8874294452e+02 1.0000000000e+02 0.0000e+00 0.0000e+00
   -10002  1    1    2    0    0 +3.3572679867e+01 -9.3432709570e+01 +2.9601119148e+02 3.2784054284e+02 1.0000000000e+02 0.0000e+00 0.0000e+00
<mgrwt>
<rscale>  0 0.50430864E+03</rscale>
<asrwt>0</asrwt>
<pdfrwt beam="1">  1        4 0.19626448E-01 0.50430864E+03</pdfrwt>
<pdfrwt beam="2">  1       -4 0.20247487E+00 0.50430864E+03</pdfrwt>
<totfact> 0.60283753E+00</totfact>
</mgrwt>
</event>
<event>
 6      1 +2.6141198e-09 3.81022100e+02 7.81860800e-03 1.05055700e-01
       -4 -1    0    0    0  501 -0.0000000000e+00 +0.0000000000e+00 +6.8742711441e+02 6.8742828755e+02 1.2700000000e+00 0.0000e+00 1.0000e+00
        4 -1    0    0  501    0 +0.0000000000e+00 -0.0000000000e+00 -5.2788689944e+01 5.2803964681e+01 1.2700000000e+00 0.0000e+00 1.0000e+00
      -13  1    1    2    0    0 -3.9163474521e+01 +1.4934649297e+01 +2.5594641582e+01 4.9111285139e+01 1.0566000000e-01 0.0000e+00 -1.0000e+00
       13  1    1    2    0    0 -2.5319386980e+01 -3.3533103839e+01 +1.6223184432e+02 1.6758497214e+02 1.0566000000e-01 0.0000e+00 1.0000e+00
    10002  1    1    2    0    0 +9.2186049868e+01 +1.9796963889e+01 +1.2636068132e+02 1.8670085526e+02 1.0000000000e+02 0.0000e+00 0.0000e+00
   -10002  1    1    2    0    0 -2.7703188366e+01 -1.1985093475e+00 +3.2045125724e+02 3.3683513970e+02 1.0000000000e+02 0.0000e+00 0.0000e+00
<mgrwt>
<rscale>  0 0.38102212E+03</rscale>
<asrwt>0</asrwt>
<pdfrwt beam="1">  1        4 0.13199229E-01 0.38102212E+03</pdfrwt>
<pdfrwt beam="2">  1       -4 0.17185883E+00 0.38102212E+03</pdfrwt>
<totfact> 0.19477336E+01</totfact>
</mgrwt>
</event>
<event>
 6      1 +2.6141198e-09 4.00141800e+02 7.81860800e-03 1.04373100e-01
        4 -1    0    0  501    0 +0.0000000000e+00 +0.0000000000e+00 +9.0005578760e+02 9.0005668360e+02 1.2700000000e+00 0.0000e+00 1.0000e+00
       -4 -1    0    0    0  501 -0.0000000000e+00 -0.0000000000e+00 -4.4463223772e+01 4.4481357535e+01 1.2700000000e+00 0.0000e+00 1.0000e+00
      -13  1    1    2    0    0 -8.2782967896e+01 -3.1454057879e+01 +1.3576957458e+02 1.6209801379e+02 1.0566000000e-01 0.0000e+00 -1.0000e+00
       13  1    1    2    0    0 +3.6145882035e+00 +4.7177852603e+01 +8.5844553767e+01 9.8020985506e+01 1.0566000000e-01 0.0000e+00 1.0000e+00
    10002  1    1    2    0    0 +9.9884422063e+00 +4.0138665197e+01 +1.6993248134e+02 2.0146446246e+02 1.0000000000e+02 0.0000e+00 0.0000e+00
   -10002  1    1    2    0    0 +6.9179937486e+01 -5.5862459921e+01 +4.6404595414e+02 4.8295457937e+02 1.0000000000e+02 0.0000e+00 0.0000e+00
<mgrwt>
<rscale>  0 0.40014182E+03</rscale>
<asrwt>0</asrwt>
<pdfrwt beam="1">  1        4 0.22501633E+00 0.40014182E+03</pdfrwt>
<pdfrwt beam="2">  1       -4 0.11118184E-01 0.40014182E+03</pdfrwt>
<totfact> 0.11893708E+01</totfact>
</mgrwt>
</event>
<event>
 6      1 +2.6141198e-09 4.57482900e+02 7.81860800e-03 1.02551400e-01
       -4 -1    0    0    0  501 -0.0000000000e+00 +0.0000000000e+00 +2.4888416717e+02 2.4888740741e+02 1.2700000000e+00 0.0000e+00 -1.0000e+00
        4 -1    0    0  501    0 +0.0000000000e+00 -0.0000000000e+00 -2.1022240284e+02 2.1022623898e+02 1.2700000000e+00 0.0000e+00 -1.0000e+00
      -13  1    1    2    0    0 -5.6698215382e+01 -2.5279241539e+01 +6.3345046445e+01 8.8692354537e+01 1.0566000000e-01 0.0000e+00 1.0000e+00
       13  1    1    2    0    0 +1.7553465267e+01 -3.1808040876e+01 -2.3009974639e+01 4.3004019628e+01 1.0566000000e-01 0.0000e+00 -1.0000e+00
    10002  1    1    2    0    0 +1.2711938670e+02 -2.0426027435e+01 +3.9839130507e+01 1.6782049157e+02 1.0000000000e+02 0.0000e+00 0.0000e+00
   -10002  1    1    2    0    0 -8.7974636588e+01 +7.7513309850e+01 -4.1512437987e+01 1.5959678065e+02 1.0000000000e+02 0.0000e+00 0.0000e+00
<mgrwt>
<rscale>  0 0.45748290E+03</rscale>
<asrwt>0</asrwt>
<pdfrwt beam="1">  1        4 0.52556485E-01 0.45748290E+03</pdfrwt>
<pdfrwt beam="2">  1       -4 0.62221926E-01 0.45748290E+03</pdfrwt>
<totfact> 0.16289678E+01</totfact>
</mgrwt>
</event>
<event>
 6      1 +2.6141198e-09 4.92077900e+02 7.81860800e-03 1.01586800e-01
       -4 -1    0    0    0  501 -0.0000000000e+00 +0.0000000000e+00 +1.1921743036e+02 1.1922419470e+02 1.2700000000e+00 0.0000e+00 -1.0000e+00
        4 -1    0    0  501    0 +0.0000000000e+00 -0.0000000000e+00 -5.0774916965e+02 5.0775075793e+02 1.2700000000e+00 0.0000e+00 -1.0000e+00
      -13  1    1    2    0    0 +1.0418628933e+02 -6.9083314668e+01 -4.5661230202e+01 1.3308736363e+02 1.0566000000e-01 0.0000e+00 1.0000e+00
       13  1    1    2    0    0 +1.0324604826e+01 +2.9412073288e+01 +3.1506883051e+00 3.1330584431e+01 1.0566000000e-01 0.0000e+00 -1.0000e+00
    10002  1    1    2    0    0 -1.4336240887e+02 +2.8819980345e-01 -1.2432225816e+02 2.1449682331e+02 1.0000000000e+02 0.0000e+00 0.0000e+00
   -10002  1    1    2    0    0 +2.8851514714e+01 +3.9383041576e+01 -2.2169893924e+02 2.4806018126e+02 1.0000000000e+02 0.0000e+00 0.0000e+00
<mgrwt>
<rscale>  0 0.49207792E+03</rscale>
<asrwt>0</asrwt>
<pdfrwt beam="1">  1        4 0.12693833E+00 0.49207792E+03</pdfrwt>
<pdfrwt beam="2">  1       -4 0.29805403E-01 0.49207792E+03</pdfrwt>
<totfact> 0.97770173E+00</totfact>
</mgrwt>
</event>
<event>
 6      1 +2.6141198e-09 4.87887800e+02 7.81860800e-03 1.01699000e-01
        4 -1    0    0  501    0 +0.0000000000e+00 +0.0000000000e+00 +2.0658361763e+02 2.0658752134e+02 1.2700000000e+00 0.0000e+00 -1.0000e+00
       -4 -1    0    0    0  501 -0.0000000000e+00 -0.0000000000e+00 -2.8805270296e+02 2.8805550261e+02 1.2700000000e+00 0.0000e+00 -1.0000e+00
      -13  1    1    2    0    0 -2.8017528264e+01 -3.5605233770e+00 -5.2575291555e+01 5.9681082957e+01 1.0566000000e-01 0.0000e+00 -1.0000e+00
       13  1    1    2    0    0 +6.2220789444e+01 +2.0100999559e+01 -1.1958950951e+01 6.6471832337e+01 1.0566000000e-01 0.0000e+00 1.0000e+00
    10002  1    1    2    0    0 +6.3825399727e+01 -1.2226822306e+02 +5.4754780204e+01 1.7894492442e+02 1.0000000000e+02 0.0000e+00 0.0000e+00
   -10002  1    1    2    0    0 -9.8028660907e+01 +1.0572774688e+02 -7.1689623026e+01 1.8954518424e+02 1.0000000000e+02 0.0000e+00 0.0000e+00
<mgrwt>
<rscale>  0 0.48788780E+03</rscale>
<asrwt>0</asrwt>
<pdfrwt beam="1">  1        4 0.51646743E-01 0.48788780E+03</pdfrwt>
<pdfrwt beam="2">  1       -4 0.72014013E-01 0.48788780E+03</pdfrwt>
<totfact> 0.12311487E+01</totfact>
</mgrwt>
</event>
<event>
 6      1 +2.6141198e-09 5.03570800e+02 7.81860800e-03 1.01285100e-01
        4 -1    0    0  501    0 +0.0000000000e+00 +0.0000000000e+00 +3.2272466179e+02 3.2272716066e+02 1.2700000000e+00 0.0000e+00 -1.0000e+00
       -4 -1    0    0    0  501 -0.0000000000e+00 -0.0000000000e+00 -1.9643425412e+02 1.9643835952e+02 1.2700000000e+00 0.0000e+00 -1.0000e+00
      -13  1    1    2    0    0 +2.5015414880e+01 -1.0237240309e+01 -8.4810654057e-01 2.7042605635e+01 1.0566000000e-01 0.0000e+00 -1.0000e+00
       13  1    1    2    0    0 -5.3720578547e+01 +1.1678383283e+02 -5.5021341831e+01 1.3982747724e+02 1.0566000000e-01 0.0000e+00 1.0000e+00
    10002  1    1    2    0    0 +2.0477308308e+01 +3.0537299951e+00 +1.7611327622e+02 2.0357930023e+02 1.0000000000e+02 0.0000e+00 0.0000e+00
   -10002  1    1    2    0    0 +8.2278553578e+00 -1.0960032252e+02 +6.0465798246e+00 1.4871613708e+02 1.0000000000e+02 0.0000e+00 0.0000e+00
<mgrwt>
<rscale>  0 0.50357082E+03</rscale>
<asrwt>0</asrwt>
<pdfrwt beam="1">  1        4 0.80681990E-01 0.50357082E+03</pdfrwt>
<pdfrwt beam="2">  1       -4 0.49109389E-01 0.50357082E+03</pdfrwt>
<totfact> 0.10611216E+01</totfact>
</mgrwt>
</event>
<event>
 6      1 +2.6141198e-09 4.10525500e+02 7.81860800e-03 1.04019500e-01
       -4 -1    0    0    0  501 -0.0000000000e+00 +0.0000000000e+00 +1.5272789899e+02 1.5273317921e+02 1.2700000000e+00 0.0000e+00 -1.0000e+00
        4 -1    0    0  501    0 +0.0000000000e+00 -0.0000000000e+00 -2.7585682916e+02 2.7585975258e+02 1.2700000000e+00 0.0000e+00 -1.0000e+00
      -13  1    1    2    0    0 +2.7640344508e+01 -3.2039913605e+00 -2.9943856653e+01 4.0876642725e+01 1.0566000000e-01 0.0000e+00 1.0000e+00
       13  1    1    2    0    0 -6.3650177054e+01 -1.6809055695e+01 +1.5248813800e+01 6.7575342239e+01 1.0566000000e-01 0.0000e+00 -1.0000e+00
    10002  1    1    2    0    0 -2.3890112452e+01 +3.1960489649e+01 +5.3524660790e+01 1.2023767997e+02 1.0000000000e+02 0.0000e+00 0.0000e+00
   -10002  1    1    2    0    0 +5.9899944998e+01 -1.1947442593e+01 -1.6195854810e+02 1.9990326685e+02 1.0000000000e+02 0.0000e+00 0.0000e+00
<mgrwt>
<rscale>  0 0.41052548E+03</rscale>
<asrwt>0</asrwt>
<pdfrwt beam="1">  1        4 0.68965232E-01 0.41052548E+03</pdfrwt>
<pdfrwt beam="2">  1       -4 0.38183001E-01 0.41052548E+03</pdfrwt>
<totfact> 0.24850645E+01</totfact>
</mgrwt>
</event>
<event>
 6      1 +2.6141198e-09 3.95142200e+02 7.81860800e-03 1.04547500e-01
        4 -1    0    0  501    0 +0.0000000000e+00 +0.0000000000e+00 +1.3937053113e+02 1.3937631738e+02 1.2700000000e+00 0.0000e+00 1.0000e+00
       -4 -1    0    0    0  501 -0.0000000000e+00 -0.0000000000e+00 -2.8006289062e+02 2.8006577014e+02 1.2700000000e+00 0.0000e+00 1.0000e+00
      -13  1    1    2    0    0 -3.0575652948e+01 +5.5857675874e+01 -3.6297232411e+01 7.3297003704e+01 1.0566000000e-01 0.0000e+00 1.0000e+00
       13  1    1    2    0    0 +2.0803614463e+01 -2.1246362993e+01 -9.6740143045e+00 3.1269730283e+01 1.0566000000e-01 0.0000e+00 -1.0000e+00
    10002  1    1    2    0    0 -3.1020753156e+01 -2.2399274341e+01 +6.2323456776e+01 1.2388796504e+02 1.0000000000e+02 0.0000e+00 0.0000e+00
   -10002  1    1    2    0    0 +4.0792791642e+01 -1.2212038540e+01 -1.5704456956e+02 1.9098738849e+02 1.0000000000e+02 0.0000e+00 0.0000e+00
<mgrwt>
<rscale>  0 0.39514216E+03</rscale>
<asrwt>0</asrwt>
<pdfrwt beam="1">  1        4 0.34843716E-01 0.39514216E+03</pdfrwt>
<pdfrwt beam="2">  1       -4 0.70016805E-01 0.39514216E+03</pdfrwt>
<totfact> 0.28729875E+01</totfact>
</mgrwt>
</event>
<event>
 6      1 +2.6141198e-09 7.12562200e+02 7.81860800e-03 9.69598700e-02
        4 -1    0    0  501    0 +0.0000000000e+00 +0.0000000000e+00 +7.5591703645e+01 7.5602371391e+01 1.2700000000e+00 0.0000e+00 1.0000e+00
       -4 -1    0    0    0  501 -0.0000000000e+00 -0.0000000000e+00 -1.6791054741e+03 1.6791059544e+03 1.2700000000e+00 0.0000e+00 1.0000e+00
      -13  1    1    2    0    0 -6.7598090763e+01 -7.5612600340e+00 -2.7872443079e+01 7.3508902694e+01 1.0566000000e-01 0.0000e+00 -1.0000e+00
       13  1    1    2    0    0 +1.5599239014e+01 -3.1066625377e+00 -8.0709757970e+01 8.2262165091e+01 1.0566000000e-01 0.0000e+00 1.0000e+00
    10002  1    1    2    0    0 -1.4127633253e+01 -2.0040433829e+02 -2.7430359268e+02 3.5440647537e+02 1.0000000000e+02 0.0000e+00 0.0000e+00
   -10002  1    1    2    0    0 +6.6126485002e+01 +2.1107226086e+02 -1.2206279767e+03 1.2445307826e+03 1.0000000000e+02 0.0000e+00 0.0000e+00
<mgrwt>
<rscale>  0 0.71256221E+03</rscale>
<asrwt>0</asrwt>
<pdfrwt beam="1">  1        4 0.18899325E-01 0.71256221E+03</pdfrwt>
<pdfrwt beam="2">  1       -4 0.41977764E+00 0.71256221E+03</pdfrwt>
<totfact> 0.26777218E-01</totfact>
</mgrwt>
</event>
<event>
 6      1 +2.6141198e-09 4.60686100e+02 7.81860800e-03 1.02458200e-01
        4 -1    0    0  501    0 +0.0000000000e+00 +0.0000000000e+00 +5.8406903321e+02 5.8407041396e+02 1.2700000000e+00 0.0000e+00 -1.0000e+00
       -4 -1    0    0    0  501 -0.0000000000e+00 -0.0000000000e+00 -9.0835923412e+01 9.0844801074e+01 1.2700000000e+00 0.0000e+00 -1.0000e+00
      -13  1    1    2    0    0 +3.9124599473e+01 +5.2174625617e+01 +3.9397285235e+01 7.6191095871e+01 1.0566000000e-01 0.0000e+00 1.0000e+00
       13  1    1    2    0    0 -4.1022882586e+01 -1.3400231819e+01 +9.4776464487e+01 1.0413948575e+02 1.0566000000e-01 0.0000e+00 -1.0000e+00
    10002  1    1    2    0    0 +1.5245118911e+01 +7.0569831378e+01 +3.1673978589e+02 3.3990676180e+02 1.0000000000e+02 0.0000e+00 0.0000e+00
   -10002  1    1    2    0    0 -1.3346835798e+01 -1.0934422518e+02 +4.2319574192e+01 1.5467787161e+02 1.0000000000e+02 0.0000e+00 0.0000e+00
<mgrwt>
<rscale>  0 0.46068606E+03</rscale>
<asrwt>0</asrwt>
<pdfrwt beam="1">  1        4 0.14601854E+00 0.46068606E+03</pdfrwt>
<pdfrwt beam="2">  1       -4 0.22710263E-01 0.46068606E+03</pdfrwt>
<totfact> 0.11408974E+01</totfact>
</mgrwt>
</event>
<event>
 6      1 +2.6141198e-09 5.17915200e+02 7.81860800e-03 1.00920600e-01
        4 -1    0    0  501    0 +0.0000000000e+00 +0.0000000000e+00 +4.1822352609e+02 4.1822545436e+02 1.2700000000e+00 0.0000e+00 -1.0000e+00
       -4 -1    0    0    0  501 -0.0000000000e+00 -0.0000000000e+00 -1.6033778614e+02 1.6034281576e+02 1.2700000000e+00 0.0000e+00 -1.0000e+00
      -13  1    1    2    0    0 -1.7435690240e+01 +4.7400471740e+01 -1.7287715228e+01 5.3382434163e+01 1.0566000000e-01 0.0000e+00 -1.0000e+00
       13  1    1    2    0    0 +1.0590975543e+01 -6.0446493773e-01 +6.1390161379e+01 6.2300057937e+01 1.0566000000e-01 0.0000e+00 1.0000e+00
    10002  1    1    2    0    0 +1.3803521121e+02 +2.0264709829e+01 +2.2669556839e+02 2.8435059122e+02 1.0000000000e+02 0.0000e+00 0.0000e+00
   -10002  1    1    2    0    0 -1.3119049652e+02 -6.7060716631e+01 -1.2912274593e+01 1.7853518680e+02 1.0000000000e+02 0.0000e+00 0.0000e+00
<mgrwt>
<rscale>  0 0.51791523E+03</rscale>
<asrwt>0</asrwt>
<pdfrwt beam="1">  1        4 0.10455675E+00 0.51791523E+03</pdfrwt>
<pdfrwt beam="2">  1       -4 0.40085316E-01 0.51791523E+03</pdfrwt>
<totfact> 0.87905536E+00</totfact>
</mgrwt>
</event>
<event>
 6      1 +2.6141198e-09 3.81906900e+02 7.81860800e-03 1.05023100e-01
       -4 -1    0    0    0  501 -0.0000000000e+00 +0.0000000000e+00 +2.9102023348e+02 2.9102300458e+02 1.2700000000e+00 0.0000e+00 1.0000e+00
        4 -1    0    0  501    0 +0.0000000000e+00 -0.0000000000e+00 -1.2528788167e+02 1.2529431828e+02 1.2700000000e+00 0.0000e+00 1.0000e+00
      -13  1    1    2    0    0 -4.3230775754e+00 +7.2318078788e+01 -4.4257222572e+01 8.4895856396e+01 1.0566000000e-01 0.0000e+00 -1.0000e+00
       13  1    1    2    0    0 +2.3091310174e+01 -1.5847507833e+00 +2.9250553347e+01 3.7300483586e+01 1.0566000000e-01 0.0000e+00 1.0000e+00
    10002  1    1    2    0    0 -3.4113937805e+01 -4.5464971662e+01 +4.6332758655e+01 1.2400624551e+02 1.0000000000e+02 0.0000e+00 0.0000e+00
   -10002  1    1    2    0    0 +1.5345705207e+01 -2.5268356342e+01 +1.3440626238e+02 1.7011473736e+02 1.0000000000e+02 0.0000e+00 0.0000e+00
<mgrwt>
<rscale>  0 0.38190693E+03</rscale>
<asrwt>0</asrwt>
<pdfrwt beam="1">  1        4 0.31323122E-01 0.38190693E+03</pdfrwt>
<pdfrwt beam="2">  1       -4 0.72756209E-01 0.38190693E+03</pdfrwt>
<totfact> 0.32406542E+01</totfact>
</mgrwt>
</event>
<event>
 6      1 +2.6141198e-09 4.09580700e+02 7.81860800e-03 1.04051200e-01
       -4 -1    0    0    0  501 -0.0000000000e+00 +0.0000000000e+00 +3.7823894138e+02 3.7824107349e+02 1.2700000000e+00 0.0000e+00 1.0000e+00
        4 -1    0    0  501    0 +0.0000000000e+00 -0.0000000000e+00 -1.1087382064e+02 1.1088109399e+02 1.2700000000e+00 0.0000e+00 1.0000e+00
      -13  1    1    2    0    0 +1.1668677885e+01 +3.1023564555e+01 +3.7630814964e+01 5.0146874282e+01 1.0566000000e-01 0.0000e+00 1.0000e+00
       13  1    1    2    0    0 -2.2491728280e+01 -5.1686970502e+01 -1.4261548017e+01 5.8144850817e+01 1.0566000000e-01 0.0000e+00 -1.0000e+00
    10002  1    1    2    0    0 -8.1829209217e+01 -4.0709524594e+01 +7.3709492541e+01 1.5422831830e+02 1.0000000000e+02 0.0000e+00 0.0000e+00
   -10002  1    1    2    0    0 +9.2652259611e+01 +6.1372930541e+01 +1.7028636125e+02 2.2660212409e+02 1.0000000000e+02 0.0000e+00 0.0000e+00
<mgrwt>
<rscale>  0 0.40958075E+03</rscale>
<asrwt>0</asrwt>
<pdfrwt beam="1">  1        4 0.27719631E-01 0.40958075E+03</pdfrwt>
<pdfrwt beam="2">  1       -4 0.94560910E-01 0.40958075E+03</pdfrwt>
<totfact> 0.22698430E+01</totfact>
</mgrwt>
</event>
<event>
 6      1 +2.6141198e-09 5.77164200e+02 7.81860800e-03 9.95394900e-02
       -4 -1    0    0    0  501 -0.0000000000e+00 +0.0000000000e+00 +9.1266505778e+02 9.1266594140e+02 1.2700000000e+00 0.0000e+00 1.0000e+00
        4 -1    0    0  501    0 +0.0000000000e+00 -0.0000000000e+00 -9.1243502708e+01 9.1252340717e+01 1.2700000000e+00 0.0000e+00 1.0000e+00
      -13  1    1    2    0    0 +1.6879298381e+01 -2.4587665803e+01 -4.7366138375e+00 3.0197859165e+01 1.0566000000e-01 0.0000e+00 -1.0000e+00
       13  1    1    2    0    0 -4.8087829486e+01 -1.7150648782e+01 +1.1396214974e+02 1.2487580564e+02 1.0566000000e-01 0.0000e+00 1.0000e+00
    10002  1    1    2    0    0 -1.4160206022e+02 +1.2114345390e+02 +1.9051045731e+02 2.8464208091e+02 1.0000000000e+02 0.0000e+00 0.0000e+00
   -10002  1    1    2    0    0 +1.7281059132e+02 -7.9405139314e+01 +5.2168556186e+02 5.6420253639e+02 1.0000000000e+02 0.0000e+00 0.0000e+00
<mgrwt>
<rscale>  0 0.57716423E+03</rscale>
<asrwt>0</asrwt>
<pdfrwt beam="1">  1        4 0.22812091E-01 0.57716423E+03</pdfrwt>
<pdfrwt beam="2">  1       -4 0.22816747E+00 0.57716423E+03</pdfrwt>
<totfact> 0.31444257E+00</totfact>
</mgrwt>
</event>
<event>
 6      1 +2.6141198e-09 4.24469300e+02 7.81860800e-03 1.03562100e-01
       -4 -1    0    0    0  501 -0.0000000000e+00 +0.0000000000e+00 +5.4503832917e+02 5.4503980879e+02 1.2700000000e+00 0.0000e+00 1.0000e+00
        4 -1    0    0  501    0 +0.0000000000e+00 -0.0000000000e+00 -8.2636429492e+01 8.2646187929e+01 1.2700000000e+00 0.0000e+00 1.0000e+00
      -13  1    1    2    0    0 -2.8674422221e+01 -4.5021232077e+01 +3.0703407331e+01 6.1577952330e+01 1.0566000000e-01 0.0000e+00 1.0000e+00
       13  1    1    2    0    0 +1.7724956228e+01 +3.7778376248e+01 +6.5625237283e+01 7.7769291611e+01 1.0566000000e-01 0.0000e+00 -1.0000e+00
    10002  1    1    2    0    0 -3.4959238443e+01 +1.1459880318e+02 +2.5392720743e+02 2.9805043317e+02 1.0000000000e+02 0.0000e+00 0.0000e+00
   -10002  1    1    2    0    0 +4.5908704437e+01 -1.0735594736e+02 +1.1214604764e+02 1.9028831960e+02 1.0000000000e+02 0.0000e+00 0.0000e+00
<mgrwt>
<rscale>  0 0.42446931E+03</rscale>
<asrwt>0</asrwt>
<pdfrwt beam="1">  1        4 0.20660513E-01 0.42446931E+03</pdfrwt>
<pdfrwt beam="2">  1       -4 0.13626098E+00 0.42446931E+03</pdfrwt>
<totfact> 0.16191665E+01</totfact>
</mgrwt>
</event>
<event>
 6      1 +2.6141198e-09 3.67034300e+02 7.81860800e-03 1.05583300e-01
       -4 -1    0    0    0  501 -0.0000000000e+00 +0.0000000000e+00 +1.8784598137e+02 1.8785027447e+02 1.2700000000e+00 0.0000e+00 1.0000e+00
        4 -1    0    0  501    0 +0.0000000000e+00 -0.0000000000e+00 -1.7927950541e+02 1.7928400364e+02 1.2700000000e+00 0.0000e+00 1.0000e+00
      -13  1    1    2    0    0 +2.3771535660e+01 -3.3781973554e+01 +5.8270615881e+01 7.1426770080e+01 1.0566000000e-01 0.0000e+00 1.0000e+00
       13  1    1    2    0    0 -8.9142756142e+00 +4.9356405677e+01 +1.6019131473e+01 5.2651142707e+01 1.0566000000e-01 0.0000e+00 -1.0000e+00
    10002  1    1    2    0    0 +4.3714436914e+01 +2.2922300977e+01 -2.4588572299e+01 1.1419711802e+02 1.0000000000e+02 0.0000e+00 0.0000e+00
   -10002  1    1    2    0    0 -5.8571696959e+01 -3.8496733100e+01 -4.1134699097e+01 1.2885924730e+02 1.0000000000e+02 0.0000e+00 0.0000e+00
<mgrwt>
<rscale>  0 0.36703432E+03</rscale>
<asrwt>0</asrwt>
<pdfrwt beam="1">  1        4 0.44820975E-01 0.36703432E+03</pdfrwt>
<pdfrwt beam="2">  1       -4 0.46962594E-01 0.36703432E+03</pdfrwt>
<totfact> 0.40320656E+01</totfact>
</mgrwt>
</event>
<event>
 6      1 +2.6141198e-09 4.72700200e+02 7.81860800e-03 1.02116100e-01
        4 -1    0    0  501    0 +0.0000000000e+00 +0.0000000000e+00 +2.8085574164e+02 2.8085861303e+02 1.2700000000e+00 0.0000e+00 -1.0000e+00
       -4 -1    0    0    0  501 -0.0000000000e+00 -0.0000000000e+00 -1.9889107906e+02 1.9889513375e+02 1.2700000000e+00 0.0000e+00 -1.0000e+00
      -13  1    1    2    0    0 -1.5443304100e+01 -2.5208076625e+01 +1.1705020071e+00 2.9585875137e+01 1.0566000000e-01 0.0000e+00 -1.0000e+00
       13  1    1    2    0    0 +1.1956023670e+01 -2.7508003973e+01 +8.7658826554e+00 3.1248818336e+01 1.0566000000e-01 0.0000e+00 1.0000e+00
    10002  1    1    2    0    0 -6.0432372586e+01 +1.8912330962e+02 +8.4156795468e+01 2.3770162835e+02 1.0000000000e+02 0.0000e+00 0.0000e+00
   -10002  1    1    2    0    0 +6.3919653015e+01 -1.3640722902e+02 -1.2128517549e+01 1.8121742496e+02 1.0000000000e+02 0.0000e+00 0.0000e+00
<mgrwt>
<rscale>  0 0.47270017E+03</rscale>
<asrwt>0</asrwt>
<pdfrwt beam="1">  1        4 0.70214801E-01 0.47270017E+03</pdfrwt>
<pdfrwt beam="2">  1       -4 0.49723636E-01 0.47270017E+03</pdfrwt>
<totfact> 0.14071062E+01</totfact>
</mgrwt>
</event>
<event>
 6      1 +2.6141198e-09 4.71628700e+02 7.81860800e-03 1.02146200e-01
       -4 -1    0    0    0  501 -0.0000000000e+00 +0.0000000000e+00 +6.9507467657e+01 6.9519069040e+01 1.2700000000e+00 0.0000e+00 1.0000e+00
        4 -1    0    0  501    0 +0.0000000000e+00 -0.0000000000e+00 -7.9995598888e+02 7.9995699700e+02 1.2700000000e+00 0.0000e+00 1.0000e+00
      -13  1    1    2    0    0 +4.2004091853e+01 +5.0343825979e+01 -1.8169223578e+02 1.9316035890e+02 1.0566000000e-01 0.0000e+00 -1.0000e+00
       13  1    1    2    0    0 -1.3306736854e+01 +9.6718497247e+00 +1.2987389410e+01 2.0959421998e+01 1.0566000000e-01 0.0000e+00 1.0000e+00
    10002  1    1    2    0    0 +9.6711332162e+01 +3.9689458095e+00 -1.3035215532e+02 1.9068434308e+02 1.0000000000e+02 0.0000e+00 0.0000e+00
   -10002  1    1    2    0    0 -1.2540868716e+02 -6.3984621513e+01 -4.3139151953e+02 4.6467194205e+02 1.0000000000e+02 0.0000e+00 0.0000e+00
<mgrwt>
<rscale>  0 0.47162865E+03</rscale>
<asrwt>0</asrwt>
<pdfrwt beam="1">  1        4 0.19999054E+00 0.47162865E+03</pdfrwt>
<pdfrwt beam="2">  1       -4 0.17378446E-01 0.47162865E+03</pdfrwt>
<totfact> 0.77960238E+00</totfact>
</mgrwt>
</event>
<event>
 6      1 +2.6141198e-09 5.25448100e+02 7.81860800e-03 1.00734200e-01
       -4 -1    0    0    0  501 -0.0000000000e+00 +0.0000000000e+00 +1.9921612434e+02 1.9922017241e+02 1.2700000000e+00 0.0000e+00 1.0000e+00
        4 -1    0    0  501    0 +0.0000000000e+00 -0.0000000000e+00 -3.4646892119e+02 3.4647124881e+02 1.2700000000e+00 0.0000e+00 1.0000e+00
      -13  1    1    2    0    0 -5.9621060061e+00 -3.1832982262e+01 -1.1780095872e+01 3.4462549101e+01 1.0566000000e-01 0.0000e+00 -1.0000e+00
       13  1    1    2    0    0 +3.0391804056e+01 +4.0098425676e+01 +5.1566900982e+01 7.2046526192e+01 1.0566000000e-01 0.0000e+00 1.0000e+00
    10002  1    1    2    0    0 -5.6288142851e+01 +6.5071900558e+01 +7.1955547663e+01 1.5026745525e+02 1.0000000000e+02 0.0000e+00 0.0000e+00
   -10002  1    1    2    0    0 +3.1858444802e+01 -7.3337343971e+01 -2.5899514963e+02 2.8891489068e+02 1.0000000000e+02 0.0000e+00 0.0000e+00
<mgrwt>
<rscale>  0 0.52544813E+03</rscale>
<asrwt>0</asrwt>
<pdfrwt beam="1">  1        4 0.86618026E-01 0.52544813E+03</pdfrwt>
<pdfrwt beam="2">  1       -4 0.49804829E-01 0.52544813E+03</pdfrwt>
<totfact> 0.87761195E+00</totfact>
</mgrwt>
</event>
<event>
 6      1 +2.6141198e-09 4.60130100e+02 7.81860800e-03 1.02474300e-01
       -4 -1    0    0    0  501 -0.0000000000e+00 +0.0000000000e+00 +3.9468129449e+01 3.9488557105e+01 1.2700000000e+00 0.0000e+00 -1.0000e+00
        4 -1    0    0  501    0 +0.0000000000e+00 -0.0000000000e+00 -1.3407125042e+03 1.3407131057e+03 1.2700000000e+00 0.0000e+00 -1.0000e+00
      -13  1    1    2    0    0 +1.7733301477e+01 -3.1312454702e+01 -1.1100301479e+02 1.1669027491e+02 1.0566000000e-01 0.0000e+00 1.0000e+00
       13  1    1    2    0    0 +1.2180667806e+01 +7.3825416872e+01 -1.7963016407e+02 1.9459077022e+02 1.0566000000e-01 0.0000e+00 -1.0000e+00
    10002  1    1    2    0    0 -1.4354874095e+02 +2.0268172260e+01 -6.3808714882e+02 6.6194580543e+02 1.0000000000e+02 0.0000e+00 0.0000e+00
   -10002  1    1    2    0    0 +1.1363477167e+02 -6.2781134430e+01 -3.7252404706e+02 4.0697481225e+02 1.0000000000e+02 0.0000e+00 0.0000e+00
<mgrwt>
<rscale>  0 0.46013010E+03</rscale>
<asrwt>0</asrwt>
<pdfrwt beam="1">  1        4 0.33518060E+00 0.46013010E+03</pdfrwt>
<pdfrwt beam="2">  1       -4 0.98696655E-02 0.46013010E+03</pdfrwt>
<totfact> 0.31476207E+00</totfact>
</mgrwt>
</event>
<event>
 6      1 +2.6141198e-09 4.83151700e+02 7.81860800e-03 1.01827300e-01
       -4 -1    0    0    0  501 -0.0000000000e+00 +0.0000000000e+00 +2.8911888009e+02 2.8912166941e+02 1.2700000000e+00 0.0000e+00 1.0000e+00
        4 -1    0    0  501    0 +0.0000000000e+00 -0.0000000000e+00 -2.0184508911e+02 2.0184908446e+02 1.2700000000e+00 0.0000e+00 1.0000e+00
      -13  1    1    2    0    0 +1.6053098505e+01 +3.6389451674e+01 +7.8848029828e+01 8.8311477943e+01 1.0566000000e-01 0.0000e+00 1.0000e+00
       13  1    1    2    0    0 -1.4739798655e+00 -1.1244792876e+01 -1.8494695675e+01 2.1695227945e+01 1.0566000000e-01 0.0000e+00 -1.0000e+00
    10002  1    1    2    0    0 +9.4195124120e+01 -6.8747199854e+01 +1.2524534712e+02 1.9820518629e+02 1.0000000000e+02 0.0000e+00 0.0000e+00
   -10002  1    1    2    0    0 -1.0877424276e+02 +4.3602541056e+01 -9.8324890297e+01 1.8275886169e+02 1.0000000000e+02 0.0000e+00 0.0000e+00
<mgrwt>
<rscale>  0 0.48315170E+03</rscale>
<asrwt>0</asrwt>
<pdfrwt beam="1">  1        4 0.50462121E-01 0.48315170E+03</pdfrwt>
<pdfrwt beam="2">  1       -4 0.72280568E-01 0.48315170E+03</pdfrwt>
<totfact> 0.12811270E+01</totfact>
</mgrwt>
</event>
<event>
 6      1 +2.6141198e-09 5.11910300e+02 7.81860800e-03 1.01071600e-01
        4 -1    0    0  501    0 +0.0000000000e+00 +0.0000000000e+00 +1.9460476810e+02 1.9460891209e+02 1.2700000000e+00 0.0000e+00 -1.0000e+00
       -4 -1    0    0    0  501 -0.0000000000e+00 -0.0000000000e+00 -3.3663763851e+02 3.3664003411e+02 1.2700000000e+00 0.0000e+00 -1.0000e+00
      -13  1    1    2    0    0 +1.7308562796e+01 +1.1813815480e+00 -6.2266370962e+01 6.4638178542e+01 1.0566000000e-01 0.0000e+00 -1.0000e+00
       13  1    1    2    0    0 -5.7510764825e+01 +5.4911756930e+01 -1.2467261860e+00 7.9525810968e+01 1.0566000000e-01 0.0000e+00 1.0000e+00
    10002  1    1    2    0    0 +1.6094178600e+02 -1.7219686582e+01 -1.1388128588e+02 2.2173796103e+02 1.0000000000e+02 0.0000e+00 0.0000e+00
   -10002  1    1    2    0    0 -1.2073958397e+02 -3.8873451896e+01 +3.5361512615e+01 1.6534699566e+02 1.0000000000e+02 0.0000e+00 0.0000e+00
<mgrwt>
<rscale>  0 0.51191025E+03</rscale>
<asrwt>0</asrwt>
<pdfrwt beam="1">  1        4 0.48652010E-01 0.51191025E+03</pdfrwt>
<pdfrwt beam="2">  1       -4 0.84160226E-01 0.51191025E+03</pdfrwt>
<totfact> 0.98335986E+00</totfact>
</mgrwt>
</event>
<event>
 6      1 +2.6141198e-09 4.09596300e+02 7.81860800e-03 1.04050700e-01
        4 -1    0    0  501    0 +0.0000000000e+00 +0.0000000000e+00 +6.3039800940e+02 6.3039928867e+02 1.2700000000e+00 0.0000e+00 -1.0000e+00
       -4 -1    0    0    0  501 -0.0000000000e+00 -0.0000000000e+00 -6.6525608516e+01 6.6537729811e+01 1.2700000000e+00 0.0000e+00 -1.0000e+00
      -13  1    1    2    0    0 -7.7232951516e+01 -1.0646781828e+01 +2.8002642828e+01 8.2839857149e+01 1.0566000000e-01 0.0000e+00 -1.0000e+00
       13  1    1    2    0    0 +2.0183069827e+01 -1.2537628780e+01 +5.0281411274e+01 5.5612767660e+01 1.0566000000e-01 0.0000e+00 1.0000e+00
    10002  1    1    2    0    0 +6.5907425320e+01 +8.6827255405e+01 +1.9685377592e+02 2.4624006596e+02 1.0000000000e+02 0.0000e+00 0.0000e+00
   -10002  1    1    2    0    0 -8.8575436310e+00 -6.3642844797e+01 +2.8873457087e+02 3.1224432771e+02 1.0000000000e+02 0.0000e+00 0.0000e+00
<mgrwt>
<rscale>  0 0.40959629E+03</rscale>
<asrwt>0</asrwt>
<pdfrwt beam="1">  1        4 0.15760118E+00 0.40959629E+03</pdfrwt>
<pdfrwt beam="2">  1       -4 0.16633077E-01 0.40959629E+03</pdfrwt>
<totfact> 0.16402177E+01</totfact>
</mgrwt>
</event>
<event>
 6      1 +2.6141198e-09 5.79179700e+02 7.81860800e-03 9.94956900e-02
        4 -1    0    0  501    0 +0.0000000000e+00 +0.0000000000e+00 +9.2460084777e+02 9.2460171999e+02 1.2700000000e+00 0.0000e+00 1.0000e+00
       -4 -1    0    0    0  501 -0.0000000000e+00 -0.0000000000e+00 -9.0695694730e+01 9.0704586117e+01 1.2700000000e+00 0.0000e+00 1.0000e+00
      -13  1    1    2    0    0 +1.4624958848e+01 +4.6071621289e+01 +2.7717970487e+00 4.8416709227e+01 1.0566000000e-01 0.0000e+00 1.0000e+00
       13  1    1    2    0    0 -1.4389631787e+01 -3.7524164829e+01 +6.2928221013e+01 7.4666569580e+01 1.0566000000e-01 0.0000e+00 -1.0000e+00
    10002  1    1    2    0    0 -5.2294371694e+01 +5.0192892663e+01 +7.5429551041e+02 7.6434007144e+02 1.0000000000e+02 0.0000e+00 0.0000e+00
   -10002  1    1    2    0    0 +5.2059044633e+01 -5.8740349124e+01 +1.3909624574e+01 1.2788295586e+02 1.0000000000e+02 0.0000e+00 0.0000e+00
<mgrwt>
<rscale>  0 0.57917967E+03</rscale>
<asrwt>0</asrwt>
<pdfrwt beam="1">  1        4 0.23115143E+00 0.57917967E+03</pdfrwt>
<pdfrwt beam="2">  1       -4 0.22675144E-01 0.57917967E+03</pdfrwt>
<totfact> 0.30475862E+00</totfact>
</mgrwt>
</event>
<event>
 6      1 +2.6141198e-09 4.02780700e+02 7.81860800e-03 1.04282100e-01
       -4 -1    0    0    0  501 -0.0000000000e+00 +0.0000000000e+00 +1.1717845482e+02 1.1718533685e+02 1.2700000000e+00 0.0000e+00 1.0000e+00
        4 -1    0    0  501    0 +0.0000000000e+00 -0.0000000000e+00 -3.4610405342e+02 3.4610638349e+02 1.2700000000e+00 0.0000e+00 1.0000e+00
      -13  1    1    2    0    0 -4.8443946767e+01 -2.8107403253e+01 -4.5885471493e+01 7.2403934660e+01 1.0566000000e-01 0.0000e+00 -1.0000e+00
       13  1    1    2    0    0 +1.5002030172e+01 +2.5702264824e+01 +2.2744519575e+01 3.7456530286e+01 1.0566000000e-01 0.0000e+00 1.0000e+00
    10002  1    1    2    0    0 +1.1682444871e+02 -1.7551586333e+01 -9.7637359819e+01 1.8300017495e+02 1.0000000000e+02 0.0000e+00 0.0000e+00
   -10002  1    1    2    0    0 -8.3382532113e+01 +1.9956724762e+01 -1.0814728686e+02 1.7043108044e+02 1.0000000000e+02 0.0000e+00 0.0000e+00
<mgrwt>
<rscale>  0 0.40278070E+03</rscale>
<asrwt>0</asrwt>
<pdfrwt beam="1">  1        4 0.86527163E-01 0.40278070E+03</pdfrwt>
<pdfrwt beam="2">  1       -4 0.29295766E-01 0.40278070E+03</pdfrwt>
<totfact> 0.25045163E+01</totfact>
</mgrwt>
</event>
<event>
 6      1 +2.6141198e-09 5.20770300e+02 7.81860800e-03 1.00849500e-01
        4 -1    0    0  501    0 +0.0000000000e+00 +0.0000000000e+00 +4.7118736076e+02 4.7118907229e+02 1.2700000000e+00 0.0000e+00 -1.0000e+00
       -4 -1    0    0    0  501 -0.0000000000e+00 -0.0000000000e+00 -1.4388791172e+02 1.4389351632e+02 1.2700000000e+00 0.0000e+00 -1.0000e+00
      -13  1    1    2    0    0 +2.2053425591e+00 +5.2559334811e+01 +1.9740350886e+01 5.6187541579e+01 1.0566000000e-01 0.0000e+00 -1.0000e+00
       13  1    1    2    0    0 -2.7052565180e+01 -4.8367007718e+01 +7.9738765185e+01 9.7105563979e+01 1.0566000000e-01 0.0000e+00 1.0000e+00
    10002  1    1    2    0    0 -9.5878513410e+01 +9.1868045186e+01 +2.2265529891e+02 2.7786293238e+02 1.0000000000e+02 0.0000e+00 0.0000e+00
   -10002  1    1    2    0    0 +1.2072573603e+02 -9.6060372279e+01 +5.1650340668e+00 1.8392655066e+02 1.0000000000e+02 0.0000e+00 0.0000e+00
<mgrwt>
<rscale>  0 0.52077026E+03</rscale>
<asrwt>0</asrwt>
<pdfrwt beam="1">  1        4 0.11779775E+00 0.52077026E+03</pdfrwt>
<pdfrwt beam="2">  1       -4 0.35972893E-01 0.52077026E+03</pdfrwt>
<totfact> 0.81702861E+00</totfact>
</mgrwt>
</event>
<event>
 6      1 +2.6141198e-09 6.00287800e+02 7.81860800e-03 9.90480900e-02
       -4 -1    0    0    0  501 -0.0000000000e+00 +0.0000000000e+00 +1.0688786228e+02 1.0689540684e+02 1.2700000000e+00 0.0000e+00 -1.0000e+00
        4 -1    0    0  501    0 +0.0000000000e+00 -0.0000000000e+00 -8.4277406076e+02 8.4277501766e+02 1.2700000000e+00 0.0000e+00 -1.0000e+00
      -13  1    1    2    0    0 -1.7769995851e+01 -4.3085292012e-01 -7.8557570951e+00 1.9434054399e+01 1.0566000000e-01 0.0000e+00 -1.0000e+00
       13  1    1    2    0    0 -9.7301025729e+01 +4.4619385213e+01 -5.4786436558e+02 5.5822374849e+02 1.0566000000e-01 0.0000e+00 1.0000e+00
    10002  1    1    2    0    0 +1.3698467059e+02 +4.2431147732e+01 -4.2694419815e+01 1.7996670736e+02 1.0000000000e+02 0.0000e+00 0.0000e+00
   -10002  1    1    2    0    0 -2.1913649008e+01 -8.6619680025e+01 -1.3747165599e+02 1.9204591425e+02 1.0000000000e+02 0.0000e+00 0.0000e+00
<mgrwt>
<rscale>  0 0.60028778E+03</rscale>
<asrwt>0</asrwt>
<pdfrwt beam="1">  1        4 0.21069456E+00 0.60028778E+03</pdfrwt>
<pdfrwt beam="2">  1       -4 0.26723031E-01 0.60028778E+03</pdfrwt>
<totfact> 0.30022172E+00</totfact>
</mgrwt>
</event>
<event>
 6      1 +2.6141198e-09 4.71256300e+02 7.81860800e-03 1.02156600e-01
        4 -1    0    0  501    0 +0.0000000000e+00 +0.0000000000e+00 +8.5982966339e+01 8.5992345011e+01 1.2700000000e+00 0.0000e+00 -1.0000e+00
       -4 -1    0    0    0  501 -0.0000000000e+00 -0.0000000000e+00 -6.4567122554e+02 6.4567247455e+02 1.2700000000e+00 0.0000e+00 -1.0000e+00
      -13  1    1    2    0    0 -2.5836058130e+00 +4.0967577320e+01 -1.0638977676e+02 1.1403426315e+02 1.0566000000e-01 0.0000e+00 1.0000e+00
       13  1    1    2    0    0 +3.9769467843e+01 -3.9843008087e+01 -1.5007279411e+02 1.6028390612e+02 1.0566000000e-01 0.0000e+00 -1.0000e+00
    10002  1    1    2    0    0 -7.8046167596e+01 -9.2810079995e+01 -4.6155082712e+01 1.6381455029e+02 1.0000000000e+02 0.0000e+00 0.0000e+00
   -10002  1    1    2    0    0 +4.0860305566e+01 +9.1685510762e+01 -2.5707060563e+02 2.9353210000e+02 1.0000000000e+02 0.0000e+00 0.0000e+00
<mgrwt>
<rscale>  0 0.47125626E+03</rscale>
<asrwt>0</asrwt>
<pdfrwt beam="1">  1        4 0.21497072E-01 0.47125626E+03</pdfrwt>
<pdfrwt beam="2">  1       -4 0.16141912E+00 0.47125626E+03</pdfrwt>
<totfact> 0.96890997E+00</totfact>
</mgrwt>
</event>
<event>
 6      1 +2.6141198e-09 6.12340400e+02 7.81860800e-03 9.88012900e-02
        4 -1    0    0  501    0 +0.0000000000e+00 +0.0000000000e+00 +1.1422269499e+02 1.1422975510e+02 1.2700000000e+00 0.0000e+00 1.0000e+00
       -4 -1    0    0    0  501 -0.0000000000e+00 -0.0000000000e+00 -8.2064629265e+02 8.2064727535e+02 1.2700000000e+00 0.0000e+00 1.0000e+00
      -13  1    1    2    0    0 -1.4717236974e+02 +1.6616167442e+01 -5.9197020450e+01 1.5949953551e+02 1.0566000000e-01 0.0000e+00 -1.0000e+00
       13  1    1    2    0    0 -2.4416983611e+01 -1.1803032901e+01 -7.0806262400e+01 7.5822415112e+01 1.0566000000e-01 0.0000e+00 1.0000e+00
    10002  1    1    2    0    0 +3.7999381162e+01 -1.4299525546e+02 -2.8698935058e+02 3.3801550763e+02 1.0000000000e+02 0.0000e+00 0.0000e+00
   -10002  1    1    2    0    0 +1.3358997219e+02 +1.3818212092e+02 -2.8943096423e+02 3.6153957220e+02 1.0000000000e+02 0.0000e+00 0.0000e+00
<mgrwt>
<rscale>  0 0.61234040E+03</rscale>
<asrwt>0</asrwt>
<pdfrwt beam="1">  1        4 0.28556681E-01 0.61234040E+03</pdfrwt>
<pdfrwt beam="2">  1       -4 0.20516256E+00 0.61234040E+03</pdfrwt>
<totfact> 0.28681651E+00</totfact>
</mgrwt>
</event>
<event>
 6      1 +2.6141198e-09 5.49131500e+02 7.81860800e-03 1.00169500e-01
        4 -1    0    0  501    0 +0.0000000000e+00 +0.0000000000e+00 +1.0253260352e+02 1.0254046852e+02 1.2700000000e+00 0.0000e+00 1.0000e+00
       -4 -1    0    0    0  501 -0.0000000000e+00 -0.0000000000e+00 -7.3520612762e+02 7.3520722453e+02 1.2700000000e+00 0.0000e+00 1.0000e+00
      -13  1    1    2    0    0 +1.9472108567e+01 -9.0717160092e+00 -8.0363797023e+01 8.3185395830e+01 1.0566000000e-01 0.0000e+00 -1.0000e+00
       13  1    1    2    0    0 +8.0616909375e+01 -8.0670010760e+01 -3.7188913070e+01 1.1995733880e+02 1.0566000000e-01 0.0000e+00 1.0000e+00
    10002  1    1    2    0    0 -1.2618934793e+02 -7.3647424265e+01 -2.3449343592e+02 2.9382795327e+02 1.0000000000e+02 0.0000e+00 0.0000e+00
   -10002  1    1    2    0    0 +2.6100329992e+01 +1.6338915103e+02 -2.8062737809e+02 3.4077700515e+02 1.0000000000e+02 0.0000e+00 0.0000e+00
<mgrwt>
<rscale>  0 0.54913150E+03</rscale>
<asrwt>0</asrwt>
<pdfrwt beam="1">  1        4 0.25634273E-01 0.54913150E+03</pdfrwt>
<pdfrwt beam="2">  1       -4 0.18380264E+00 0.54913150E+03</pdfrwt>
<totfact> 0.48729508E+00</totfact>
</mgrwt>
</event>
<event>
 6      1 +2.6141198e-09 5.31493600e+02 7.81860800e-03 1.00587100e-01
       -4 -1    0    0    0  501 -0.0000000000e+00 +0.0000000000e+00 +4.8996680423e+02 4.8996845015e+02 1.2700000000e+00 0.0000e+00 -1.0000e+00
        4 -1    0    0  501    0 +0.0000000000e+00 -0.0000000000e+00 -1.4413030389e+02 1.4413589907e+02 1.2700000000e+00 0.0000e+00 -1.0000e+00
      -13  1    1    2    0    0 -2.6437801400e+01 -5.6947013369e+01 +1.0257747069e+02 1.2026665511e+02 1.0566000000e-01 0.0000e+00 -1.0000e+00
       13  1    1    2    0    0 -1.0870198698e+02 -5.0714757672e+00 +1.2733212502e+02 1.6749723301e+02 1.0566000000e-01 0.0000e+00 1.0000e+00
    10002  1    1    2    0    0 +5.4347234714e+01 -5.2258924746e+01 -2.0362770870e+01 1.2688285768e+02 1.0000000000e+02 0.0000e+00 0.0000e+00
   -10002  1    1    2    0    0 +8.0792553663e+01 +1.1427741388e+02 +1.3628967550e+02 2.1945760342e+02 1.0000000000e+02 0.0000e+00 0.0000e+00
<mgrwt>
<rscale>  0 0.53149359E+03</rscale>
<asrwt>0</asrwt>
<pdfrwt beam="1">  1        4 0.36033481E-01 0.53149359E+03</pdfrwt>
<pdfrwt beam="2">  1       -4 0.12249261E+00 0.53149359E+03</pdfrwt>
<totfact> 0.73948168E+00</totfact>
</mgrwt>
</event>
<event>
 6      1 +2.6141198e-09 4.55456900e+02 7.81860800e-03 1.02610700e-01
       -4 -1    0    0    0  501 -0.0000000000e+00 +0.0000000000e+00 +8.7340948358e+01 8.7350181225e+01 1.2700000000e+00 0.0000e+00 -1.0000e+00
        4 -1    0    0  501    0 +0.0000000000e+00 -0.0000000000e+00 -5.9372667588e+02 5.9372803416e+02 1.2700000000e+00 0.0000e+00 -1.0000e+00
      -13  1    1    2    0    0 +3.7713826254e+01 -4.6755359279e+00 -6.9581488198e+01 7.9282961541e+01 1.0566000000e-01 0.0000e+00 -1.0000e+00
       13  1    1    2    0    0 -4.7256992679e+01 +6.0705761491e+01 -1.9398056304e+02 2.0867889888e+02 1.0566000000e-01 0.0000e+00 1.0000e+00
    10002  1    1    2    0    0 -5.8908925561e+01 -9.1258331617e+01 -2.1987473025e+02 2.6484569395e+02 1.0000000000e+02 0.0000e+00 0.0000e+00
   -10002  1    1    2    0    0 +6.8452091987e+01 +3.5228106054e+01 -2.2948946028e+01 1.2827066102e+02 1.0000000000e+02 0.0000e+00 0.0000e+00
<mgrwt>
<rscale>  0 0.45545695E+03</rscale>
<asrwt>0</asrwt>
<pdfrwt beam="1">  1        4 0.14843298E+00 0.45545695E+03</pdfrwt>
<pdfrwt beam="2">  1       -4 0.21836563E-01 0.45545695E+03</pdfrwt>
<totfact> 0.11750919E+01</totfact>
</mgrwt>
</event>
<event>
 6      1 +2.6141198e-09 5.11302500e+02 7.81860800e-03 1.01087000e-01
       -4 -1    0    0    0  501 -0.0000000000e+00 +0.0000000000e+00 +2.3343505090e+02 2.3343850559e+02 1.2700000000e+00 0.0000e+00 -1.0000e+00
        4 -1    0    0  501    0 +0.0000000000e+00 -0.0000000000e+00 -2.7997483140e+02 2.7997771183e+02 1.2700000000e+00 0.0000e+00 -1.0000e+00
      -13  1    1    2    0    0 +8.1086491159e+01 +5.5320528277e+00 -8.2478705743e+01 1.1579451940e+02 1.0566000000e-01 0.0000e+00 1.0000e+00
       13  1    1    2    0    0 -3.2329333360e+00 +3.6382989416e+01 +6.8003604473e+00 3.7154136284e+01 1.0566000000e-01 0.0000e+00 -1.0000e+00
    10002  1    1    2    0    0 +7.1634700355e+01 +2.7495824371e+01 +9.3814598404e+01 1.5712647621e+02 1.0000000000e+02 0.0000e+00 0.0000e+00
   -10002  1    1    2    0    0 -1.4948825818e+02 -6.9410866615e+01 -6.4676033610e+01 2.0334108552e+02 1.0000000000e+02 0.0000e+00 0.0000e+00
<mgrwt>
<rscale>  0 0.51130251E+03</rscale>
<asrwt>0</asrwt>
<pdfrwt beam="1">  1        4 0.69994500E-01 0.51130251E+03</pdfrwt>
<pdfrwt beam="2">  1       -4 0.58359555E-01 0.51130251E+03</pdfrwt>
<totfact> 0.10145299E+01</totfact>
</mgrwt>
</event>
<event>
 6      1 +2.6141198e-09 3.88548900e+02 7.81860800e-03 1.04781900e-01
        4 -1    0    0  501    0 +0.0000000000e+00 +0.0000000000e+00 +7.5628706538e+01 7.5639369065e+01 1.2700000000e+00 0.0000e+00 -1.0000e+00
       -4 -1    0    0    0  501 -0.0000000000e+00 -0.0000000000e+00 -4.9900417149e+02 4.9900578761e+02 1.2700000000e+00 0.0000e+00 -1.0000e+00
      -13  1    1    2    0    0 -2.9096718091e+01 +4.1525194131e+01 -5.0081235755e+01 7.1267819456e+01 1.0566000000e-01 0.0000e+00 -1.0000e+00
       13  1    1    2    0    0 +3.9759090641e+01 -6.9603336863e+00 -1.2390564026e+02 1.3031442893e+02 1.0566000000e-01 0.0000e+00 1.0000e+00
    10002  1    1    2    0    0 +5.9128950271e+01 +4.6292059294e+01 -1.5407417128e+02 1.9843900264e+02 1.0000000000e+02 0.0000e+00 0.0000e+00
   -10002  1    1    2    0    0 -6.9791322821e+01 -8.0856919739e+01 -9.5314417659e+01 1.7462390565e+02 1.0000000000e+02 0.0000e+00 0.0000e+00
<mgrwt>
<rscale>  0 0.38854893E+03</rscale>
<asrwt>0</asrwt>
<pdfrwt beam="1">  1        4 0.18908713E-01 0.38854893E+03</pdfrwt>
<pdfrwt beam="2">  1       -4 0.12475257E+00 0.38854893E+03</pdfrwt>
<totfact> 0.23652598E+01</totfact>
</mgrwt>
</event>
<event>
 6      1 +2.6141198e-09 4.03611300e+02 7.81860800e-03 1.04253600e-01
        4 -1    0    0  501    0 +0.0000000000e+00 +0.0000000000e+00 +1.7249156105e+02 1.7249623629e+02 1.2700000000e+00 0.0000e+00 1.0000e+00
       -4 -1    0    0    0  501 -0.0000000000e+00 -0.0000000000e+00 -2.3609198790e+02 2.3609540370e+02 1.2700000000e+00 0.0000e+00 1.0000e+00
      -13  1    1    2    0    0 -4.1114839303e+01 +5.1857780115e+01 +3.0072667601e+01 7.2691374110e+01 1.0566000000e-01 0.0000e+00 -1.0000e+00
       13  1    1    2    0    0 +2.9315780242e+01 +1.3307750238e+01 -2.9222682362e+01 4.3479736844e+01 1.0566000000e-01 0.0000e+00 1.0000e+00
    10002  1    1    2    0    0 +6.6129924789e+01 -8.6879276595e+01 +1.9509761917e+01 1.4933789360e+02 1.0000000000e+02 0.0000e+00 0.0000e+00
   -10002  1    1    2    0    0 -5.4330865727e+01 +2.1713746241e+01 -8.3960174000e+01 1.4308263544e+02 1.0000000000e+02 0.0000e+00 0.0000e+00
<mgrwt>
<rscale>  0 0.40361134E+03</rscale>
<asrwt>0</asrwt>
<pdfrwt beam="1">  1        4 0.43123902E-01 0.40361134E+03</pdfrwt>
<pdfrwt beam="2">  1       -4 0.59024008E-01 0.40361134E+03</pdfrwt>
<totfact> 0.27224960E+01</totfact>
</mgrwt>
</event>
<event>
 6      1 +2.6141198e-09 4.23252900e+02 7.81860800e-03 1.03601300e-01
       -4 -1    0    0    0  501 -0.0000000000e+00 +0.0000000000e+00 +2.8593202453e+02 2.8593484494e+02 1.2700000000e+00 0.0000e+00 1.0000e+00
        4 -1    0    0  501    0 +0.0000000000e+00 -0.0000000000e+00 -1.5662463291e+02 1.5662978176e+02 1.2700000000e+00 0.0000e+00 1.0000e+00
      -13  1    1    2    0    0 -2.6857459310e+00 +4.5259332317e+01 -2.3888763616e+01 5.1247483686e+01 1.0566000000e-01 0.0000e+00 1.0000e+00
       13  1    1    2    0    0 -3.7847547116e+01 -1.7460509875e+01 +5.5354535009e+01 6.9292437811e+01 1.0566000000e-01 0.0000e+00 -1.0000e+00
    10002  1    1    2    0    0 -8.1109447389e+01 -1.1504653845e+01 -1.1259034175e+01 1.2976080058e+02 1.0000000000e+02 0.0000e+00 0.0000e+00
   -10002  1    1    2    0    0 +1.2164274044e+02 -1.6294168596e+01 +1.0910065440e+02 1.9226390463e+02 1.0000000000e+02 0.0000e+00 0.0000e+00
<mgrwt>
<rscale>  0 0.42325294E+03</rscale>
<asrwt>0</asrwt>
<pdfrwt beam="1">  1        4 0.39157155E-01 0.42325294E+03</pdfrwt>
<pdfrwt beam="2">  1       -4 0.71484002E-01 0.42325294E+03</pdfrwt>
<totfact> 0.21877282E+01</totfact>
</mgrwt>
</event>
<event>
 6      1 +2.6141198e-09 5.60115600e+02 7.81860800e-03 9.99179300e-02
       -4 -1    0    0    0  501 -0.0000000000e+00 +0.0000000000e+00 +2.8797626098e+02 2.8797906137e+02 1.2700000000e+00 0.0000e+00 1.0000e+00
        4 -1    0    0  501    0 +0.0000000000e+00 -0.0000000000e+00 -2.7235148152e+02 2.7235444256e+02 1.2700000000e+00 0.0000e+00 1.0000e+00
      -13  1    1    2    0    0 +2.8737081356e+01 +3.4542664354e+01 -3.0934979327e+01 5.4552723264e+01 1.0566000000e-01 0.0000e+00 1.0000e+00
       13  1    1    2    0    0 -8.7530140024e+01 +8.7798663732e+01 -4.3778210952e+01 1.3147879557e+02 1.0566000000e-01 0.0000e+00 -1.0000e+00
    10002  1    1    2    0    0 +7.2215935378e+01 +5.6079099617e+01 -2.6937001849e+01 1.3815067428e+02 1.0000000000e+02 0.0000e+00 0.0000e+00
   -10002  1    1    2    0    0 -1.3422876710e+01 -1.7842042770e+02 +1.1727497159e+02 2.3615131082e+02 1.0000000000e+02 0.0000e+00 0.0000e+00
<mgrwt>
<rscale>  0 0.56011561E+03</rscale>
<asrwt>0</asrwt>
<pdfrwt beam="1">  1        4 0.68088591E-01 0.56011561E+03</pdfrwt>
<pdfrwt beam="2">  1       -4 0.71994785E-01 0.56011561E+03</pdfrwt>
<totfact> 0.68432508E+00</totfact>
</mgrwt>
</event>
<event>
 6      1 +2.6141198e-09 4.27767700e+02 7.81860800e-03 1.03456700e-01
       -4 -1    0    0    0  501 -0.0000000000e+00 +0.0000000000e+00 +5.5387395423e+02 5.5387541025e+02 1.2700000000e+00 0.0000e+00 -1.0000e+00
        4 -1    0    0  501    0 +0.0000000000e+00 -0.0000000000e+00 -8.2586911650e+01 8.2596675937e+01 1.2700000000e+00 0.0000e+00 -1.0000e+00
      -13  1    1    2    0    0 +4.5029164927e+01 -7.1791316687e+00 +4.0025335133e+01 6.0672928412e+01 1.0566000000e-01 0.0000e+00 -1.0000e+00
       13  1    1    2    0    0 -4.6093896546e+01 -1.2842652932e+01 +1.2061781840e+02 1.2976228386e+02 1.0566000000e-01 0.0000e+00 1.0000e+00
    10002  1    1    2    0    0 -3.2843001402e+01 +1.1994837794e+02 +9.4227905792e+01 1.8532451090e+02 1.0000000000e+02 0.0000e+00 0.0000e+00
   -10002  1    1    2    0    0 +3.3907733021e+01 -9.9926593341e+01 +2.1641598325e+02 2.6071236300e+02 1.0000000000e+02 0.0000e+00 0.0000e+00
<mgrwt>
<rscale>  0 0.42776774E+03</rscale>
<asrwt>0</asrwt>
<pdfrwt beam="1">  1        4 0.20648130E-01 0.42776774E+03</pdfrwt>
<pdfrwt beam="2">  1       -4 0.13846989E+00 0.42776774E+03</pdfrwt>
<totfact> 0.15561662E+01</totfact>
</mgrwt>
</event>
<event>
 6      1 +2.6141198e-09 3.64417800e+02 7.81860800e-03 1.05684800e-01
        4 -1    0    0  501    0 +0.0000000000e+00 +0.0000000000e+00 +5.5178908749e+01 5.5193521999e+01 1.2700000000e+00 0.0000e+00 1.0000e+00
       -4 -1    0    0    0  501 -0.0000000000e+00 -0.0000000000e+00 -6.0158562168e+02 6.0158696222e+02 1.2700000000e+00 0.0000e+00 1.0000e+00
      -13  1    1    2    0    0 +4.5032364835e+01 +2.0730702097e+01 -1.2304985470e+02 1.3266104853e+02 1.0566000000e-01 0.0000e+00 -1.0000e+00
       13  1    1    2    0    0 -5.6854433563e+01 +7.1554983092e+00 -5.0419040817e+01 7.6326395256e+01 1.0566000000e-01 0.0000e+00 1.0000e+00
    10002  1    1    2    0    0 -2.2008359688e+01 +4.8968476362e+01 -2.1268986111e+02 2.4107935746e+02 1.0000000000e+02 0.0000e+00 0.0000e+00
   -10002  1    1    2    0    0 +3.3830428415e+01 -7.6854676769e+01 -1.6024795630e+02 2.0671368297e+02 1.0000000000e+02 0.0000e+00 0.0000e+00
<mgrwt>
<rscale>  0 0.36441777E+03</rscale>
<asrwt>0</asrwt>
<pdfrwt beam="1">  1        4 0.13796723E-01 0.36441777E+03</pdfrwt>
<pdfrwt beam="2">  1       -4 0.15039838E+00 0.36441777E+03</pdfrwt>
<totfact> 0.25710167E+01</totfact>
</mgrwt>
</event>
<event>
 6      1 +2.6141198e-09 6.70637600e+02 7.81860800e-03 9.76880700e-02
        4 -1    0    0  501    0 +0.0000000000e+00 +0.0000000000e+00 +5.4337408199e+02 5.4337556614e+02 1.2700000000e+00 0.0000e+00 -1.0000e+00
       -4 -1    0    0    0  501 -0.0000000000e+00 -0.0000000000e+00 -2.0692314618e+02 2.0692704348e+02 1.2700000000e+00 0.0000e+00 -1.0000e+00
      -13  1    1    2    0    0 -1.2387362903e+01 -1.0798192489e+02 +7.2101192135e+01 1.3043057898e+02 1.0566000000e-01 0.0000e+00 1.0000e+00
       13  1    1    2    0    0 -4.3352155664e+01 -1.4355121296e+01 +1.2038519865e+02 1.2875591686e+02 1.0566000000e-01 0.0000e+00 -1.0000e+00
    10002  1    1    2    0    0 +3.2859572171e+01 -6.9608125844e+01 +2.2574249175e+02 2.5862079430e+02 1.0000000000e+02 0.0000e+00 0.0000e+00
   -10002  1    1    2    0    0 +2.2879946396e+01 +1.9194517203e+02 -8.1777946719e+01 2.3249531948e+02 1.0000000000e+02 0.0000e+00 0.0000e+00
<mgrwt>
<rscale>  0 0.67063759E+03</rscale>
<asrwt>0</asrwt>
<pdfrwt beam="1">  1        4 0.13584419E+00 0.67063759E+03</pdfrwt>
<pdfrwt beam="2">  1       -4 0.51731460E-01 0.67063759E+03</pdfrwt>
<totfact> 0.27320185E+00</totfact>
</mgrwt>
</event>
<event>
 6      1 +2.6141198e-09 5.05045800e+02 7.81860800e-03 1.01247000e-01
       -4 -1    0    0    0  501 -0.0000000000e+00 +0.0000000000e+00 +2.1675448314e+02 2.1675820368e+02 1.2700000000e+00 0.0000e+00 1.0000e+00
        4 -1    0    0  501    0 +0.0000000000e+00 -0.0000000000e+00 -2.9418612712e+02 2.9418886840e+02 1.2700000000e+00 0.0000e+00 1.0000e+00
      -13  1    1    2    0    0 -1.5749067914e+01 +6.1451564669e-04 -1.9268043267e+01 2.4885774971e+01 1.0566000000e-01 0.0000e+00 -1.0000e+00
       13  1    1    2    0    0 -4.9267029671e+01 -4.0635310830e+01 +1.2286155850e+02 1.3846820003e+02 1.0566000000e-01 0.0000e+00 1.0000e+00
    10002  1    1    2    0    0 +2.7099727077e+01 +1.0491839239e+02 -1.6580806565e+02 2.2188866331e+02 1.0000000000e+02 0.0000e+00 0.0000e+00
   -10002  1    1    2    0    0 +3.7916370508e+01 -6.4283696071e+01 -1.5217093559e+01 1.2570443377e+02 1.0000000000e+02 0.0000e+00 0.0000e+00
<mgrwt>
<rscale>  0 0.50504579E+03</rscale>
<asrwt>0</asrwt>
<pdfrwt beam="1">  1        4 0.73547339E-01 0.50504579E+03</pdfrwt>
<pdfrwt beam="2">  1       -4 0.54189429E-01 0.50504579E+03</pdfrwt>
<totfact> 0.10635032E+01</totfact>
</mgrwt>
</event>
<event>
 6      1 +2.6141198e-09 3.71639900e+02 7.81860800e-03 1.05406800e-01
       -4 -1    0    0    0  501 -0.0000000000e+00 +0.0000000000e+00 +3.5352555585e+02 3.5352783701e+02 1.2700000000e+00 0.0000e+00 1.0000e+00
        4 -1    0    0  501    0 +0.0000000000e+00 -0.0000000000e+00 -9.7663871013e+01 9.7672128067e+01 1.2700000000e+00 0.0000e+00 1.0000e+00
      -13  1    1    2    0    0 -2.3257428744e+01 -1.9494008344e+01 +2.3358746549e+00 3.0436685554e+01 1.0566000000e-01 0.0000e+00 -1.0000e+00
       13  1    1    2    0    0 +2.4884078350e+01 +5.9041802968e+01 +5.6131847237e+01 8.5181848368e+01 1.0566000000e-01 0.0000e+00 1.0000e+00
    10002  1    1    2    0    0 -6.6335774183e+01 +8.1362885653e+00 +2.8722937281e+01 1.2365937593e+02 1.0000000000e+02 0.0000e+00 0.0000e+00
   -10002  1    1    2    0    0 +6.4709124577e+01 -4.7684083189e+01 +1.6867102566e+02 2.1192205523e+02 1.0000000000e+02 0.0000e+00 0.0000e+00
<mgrwt>
<rscale>  0 0.37163989E+03</rscale>
<asrwt>0</asrwt>
<pdfrwt beam="1">  1        4 0.24417285E-01 0.37163989E+03</pdfrwt>
<pdfrwt beam="2">  1       -4 0.88382706E-01 0.37163989E+03</pdfrwt>
<totfact> 0.33498621E+01</totfact>
</mgrwt>
</event>
<event>
 6      1 +2.6141198e-09 4.98380500e+02 7.81860800e-03 1.01420200e-01
       -4 -1    0    0    0  501 -0.0000000000e+00 +0.0000000000e+00 +2.2496378841e+02 2.2496737318e+02 1.2700000000e+00 0.0000e+00 1.0000e+00
        4 -1    0    0  501    0 +0.0000000000e+00 -0.0000000000e+00 -2.7601845271e+02 2.7602137442e+02 1.2700000000e+00 0.0000e+00 1.0000e+00
      -13  1    1    2    0    0 +1.2202521625e+01 +5.2337431682e+01 -8.4535977043e+01 1.0017210624e+02 1.0566000000e-01 0.0000e+00 -1.0000e+00
       13  1    1    2    0    0 +3.5832581182e+01 -4.3371919825e+01 -4.2500911538e+01 7.0508410484e+01 1.0566000000e-01 0.0000e+00 1.0000e+00
    10002  1    1    2    0    0 +1.1332211511e+01 +1.8886586236e+01 -8.2692699057e+01 1.3161764561e+02 1.0000000000e+02 0.0000e+00 0.0000e+00
   -10002  1    1    2    0    0 -5.9367314319e+01 -2.7852098093e+01 +1.5867492334e+02 1.9869058527e+02 1.0000000000e+02 0.0000e+00 0.0000e+00
<mgrwt>
<rscale>  0 0.49838052E+03</rscale>
<asrwt>0</asrwt>
<pdfrwt beam="1">  1        4 0.69005426E-01 0.49838052E+03</pdfrwt>
<pdfrwt beam="2">  1       -4 0.56241760E-01 0.49838052E+03</pdfrwt>
<totfact> 0.11315281E+01</totfact>
</mgrwt>
</event>
<event>
 6      1 +2.6141198e-09 3.70129800e+02 7.81860800e-03 1.05464300e-01
       -4 -1    0    0    0  501 -0.0000000000e+00 +0.0000000000e+00 +8.2840787142e+01 8.2850521509e+01 1.2700000000e+00 0.0000e+00 1.0000e+00
        4 -1    0    0  501    0 +0.0000000000e+00 -0.0000000000e+00 -4.1339692096e+02 4.1339887174e+02 1.2700000000e+00 0.0000e+00 1.0000e+00
      -13  1    1    2    0    0 -2.0885862544e+00 -7.4769801693e+01 -9.3762649943e+01 1.1994303284e+02 1.0566000000e-01 0.0000e+00 -1.0000e+00
       13  1    1    2    0    0 -1.9351907176e+01 +1.6123543604e+01 +9.3148112363e+00 2.6855946122e+01 1.0566000000e-01 0.0000e+00 1.0000e+00
    10002  1    1    2    0    0 -3.7366393128e+01 +8.7442095734e+00 -5.5056111950e+01 1.2043207214e+02 1.0000000000e+02 0.0000e+00 0.0000e+00
   -10002  1    1    2    0    0 +5.8806886559e+01 +4.9902048516e+01 -1.9105218316e+02 2.2901834216e+02 1.0000000000e+02 0.0000e+00 0.0000e+00
<mgrwt>
<rscale>  0 0.37012985E+03</rscale>
<asrwt>0</asrwt>
<pdfrwt beam="1">  1        4 0.10335069E+00 0.37012985E+03</pdfrwt>
<pdfrwt beam="2">  1       -4 0.20711659E-01 0.37012985E+03</pdfrwt>
<totfact> 0.31525771E+01</totfact>
</mgrwt>
</event>
<event>
 6      1 +2.6141198e-09 4.52167500e+02 7.81860800e-03 1.02707800e-01
        4 -1    0    0  501    0 +0.0000000000e+00 +0.0000000000e+00 +7.5760981217e+01 7.5771625131e+01 1.2700000000e+00 0.0000e+00 -1.0000e+00
       -4 -1    0    0    0  501 -0.0000000000e+00 -0.0000000000e+00 -6.7461395972e+02 6.7461515515e+02 1.2700000000e+00 0.0000e+00 -1.0000e+00
      -13  1    1    2    0    0 -6.2693132929e+01 -1.4563696227e+01 -1.0290066770e+02 1.2137169663e+02 1.0566000000e-01 0.0000e+00 1.0000e+00
       13  1    1    2    0    0 +2.9471186378e+01 -3.6792921939e+01 -1.5541423405e+02 1.6240648152e+02 1.0566000000e-01 0.0000e+00 -1.0000e+00
    10002  1    1    2    0    0 -7.6132092766e+01 +1.5993455650e+01 -2.7098033571e+02 2.9913580279e+02 1.0000000000e+02 0.0000e+00 0.0000e+00
   -10002  1    1    2    0    0 +1.0935403932e+02 +3.5363162515e+01 -6.9557741045e+01 1.6747279933e+02 1.0000000000e+02 0.0000e+00 0.0000e+00
<mgrwt>
<rscale>  0 0.45216748E+03</rscale>
<asrwt>0</asrwt>
<pdfrwt beam="1">  1        4 0.18941727E-01 0.45216748E+03</pdfrwt>
<pdfrwt beam="2">  1       -4 0.16865495E+00 0.45216748E+03</pdfrwt>
<totfact> 0.10832744E+01</totfact>
</mgrwt>
</event>
<event>
 6      1 +2.6141198e-09 5.20952800e+02 7.81860800e-03 1.00845000e-01
        4 -1    0    0  501    0 +0.0000000000e+00 +0.0000000000e+00 +1.4248364300e+02 1.4248930284e+02 1.2700000000e+00 0.0000e+00 -1.0000e+00
       -4 -1    0    0    0  501 -0.0000000000e+00 -0.0000000000e+00 -4.7616466015e+02 4.7616635378e+02 1.2700000000e+00 0.0000e+00 -1.0000e+00
      -13  1    1    2    0    0 -1.6109931986e+01 -5.1770993375e+01 -2.4074080300e+01 5.9324010063e+01 1.0566000000e-01 0.0000e+00 1.0000e+00
       13  1    1    2    0    0 -2.7305523610e+00 +4.2507964087e+01 -9.3463729338e+01 1.0271252500e+02 1.0566000000e-01 0.0000e+00 -1.0000e+00
    10002  1    1    2    0    0 +1.4943402780e+02 -3.8821507482e+01 -4.1136763207e+00 1.8399608811e+02 1.0000000000e+02 0.0000e+00 0.0000e+00
   -10002  1    1    2    0    0 -1.3059354345e+02 +4.8084536771e+01 -2.1202953118e+02 2.7262303344e+02 1.0000000000e+02 0.0000e+00 0.0000e+00
<mgrwt>
<rscale>  0 0.52095278E+03</rscale>
<asrwt>0</asrwt>
<pdfrwt beam="1">  1        4 0.35621831E-01 0.52095278E+03</pdfrwt>
<pdfrwt beam="2">  1       -4 0.11904208E+00 0.52095278E+03</pdfrwt>
<totfact> 0.81173916E+00</totfact>
</mgrwt>
</event>
<event>
 6      1 +2.6141198e-09 4.61317800e+02 7.81860800e-03 1.02440000e-01
       -4 -1    0    0    0  501 -0.0000000000e+00 +0.0000000000e+00 +4.3189532135e+02 4.3189718858e+02 1.2700000000e+00 0.0000e+00 1.0000e+00
        4 -1    0    0  501    0 +0.0000000000e+00 -0.0000000000e+00 -1.2318075853e+02 1.2318730524e+02 1.2700000000e+00 0.0000e+00 1.0000e+00
      -13  1    1    2    0    0 -5.2612786193e+01 +1.2607285635e-01 +4.5030550630e+01 6.9252312737e+01 1.0566000000e-01 0.0000e+00 1.0000e+00
       13  1    1    2    0    0 +3.3698361427e+01 +2.6310205238e+01 +1.7568844620e+02 1.8081550750e+02 1.0566000000e-01 0.0000e+00 -1.0000e+00
    10002  1    1    2    0    0 +2.4774645497e+01 +1.7709920655e+01 -6.0311295973e+01 1.2068503126e+02 1.0000000000e+02 0.0000e+00 0.0000e+00
   -10002  1    1    2    0    0 -5.8602207310e+00 -4.4146198750e+01 +1.4830686197e+02 1.8433164232e+02 1.0000000000e+02 0.0000e+00 0.0000e+00
<mgrwt>
<rscale>  0 0.46131780E+03</rscale>
<asrwt>0</asrwt>
<pdfrwt beam="1">  1        4 0.30796242E-01 0.46131780E+03</pdfrwt>
<pdfrwt beam="2">  1       -4 0.10797488E+00 0.46131780E+03</pdfrwt>
<totfact> 0.13619904E+01</totfact>
</mgrwt>
</event>
<event>
 6      1 +2.6141198e-09 4.41452000e+02 7.81860800e-03 1.03030200e-01
       -4 -1    0    0    0  501 -0.0000000000e+00 +0.0000000000e+00 +6.7539175749e+01 6.7551115171e+01 1.2700000000e+00 0.0000e+00 -1.0000e+00
        4 -1    0    0  501    0 +0.0000000000e+00 -0.0000000000e+00 -7.2128241059e+02 7.2128352867e+02 1.2700000000e+00 0.0000e+00 -1.0000e+00
      -13  1    1    2    0    0 -6.3593059179e+01 -5.0439728193e+00 -5.2516774172e+00 6.4008672204e+01 1.0566000000e-01 0.0000e+00 1.0000e+00
       13  1    1    2    0    0 +1.2307180622e+01 +2.5509543159e+01 -6.0387606994e+01 6.6699908018e+01 1.0566000000e-01 0.0000e+00 -1.0000e+00
    10002  1    1    2    0    0 +1.0534571220e+02 +5.7770400163e+01 -2.8404298341e+02 3.2421529056e+02 1.0000000000e+02 0.0000e+00 0.0000e+00
   -10002  1    1    2    0    0 -5.4059833640e+01 -7.8235970503e+01 -3.0406096702e+02 3.3391077305e+02 1.0000000000e+02 0.0000e+00 0.0000e+00
<mgrwt>
<rscale>  0 0.44145201E+03</rscale>
<asrwt>0</asrwt>
<pdfrwt beam="1">  1        4 0.18032221E+00 0.44145201E+03</pdfrwt>
<pdfrwt beam="2">  1       -4 0.16886428E-01 0.44145201E+03</pdfrwt>
<totfact> 0.11062645E+01</totfact>
</mgrwt>
</event>
<event>
 6      1 +2.6141198e-09 5.11225900e+02 7.81860800e-03 1.01089000e-01
       -4 -1    0    0    0  501 -0.0000000000e+00 +0.0000000000e+00 +6.8244464954e+02 6.8244583125e+02 1.2700000000e+00 0.0000e+00 1.0000e+00
        4 -1    0    0  501    0 +0.0000000000e+00 -0.0000000000e+00 -9.5735580980e+01 9.5744004332e+01 1.2700000000e+00 0.0000e+00 1.0000e+00
      -13  1    1    2    0    0 -2.3856009859e+01 -1.0367205346e+02 +1.7933998205e+02 2.0851821072e+02 1.0566000000e-01 0.0000e+00 1.0000e+00
       13  1    1    2    0    0 +2.0186835393e+01 +1.8905127770e+01 +4.4562512953e+00 2.8013952217e+01 1.0566000000e-01 0.0000e+00 -1.0000e+00
    10002  1    1    2    0    0 -6.4301187624e+01 +1.7452729032e+02 +2.2519080815e+02 3.0871559382e+02 1.0000000000e+02 0.0000e+00 0.0000e+00
   -10002  1    1    2    0    0 +6.7970362090e+01 -8.9760364622e+01 +1.7772202707e+02 2.3294207882e+02 1.0000000000e+02 0.0000e+00 0.0000e+00
<mgrwt>
<rscale>  0 0.51122587E+03</rscale>
<asrwt>0</asrwt>
<pdfrwt beam="1">  1        4 0.23935096E-01 0.51122587E+03</pdfrwt>
<pdfrwt beam="2">  1       -4 0.17061236E+00 0.51122587E+03</pdfrwt>
<totfact> 0.68318103E+00</totfact>
</mgrwt>
</event>
<event>
 6      1 +2.6141198e-09 3.98237200e+02 7.81860800e-03 1.04439200e-01
        4 -1    0    0  501    0 +0.0000000000e+00 +0.0000000000e+00 +3.9845971691e+02 3.9846174083e+02 1.2700000000e+00 0.0000e+00 -1.0000e+00
       -4 -1    0    0    0  501 -0.0000000000e+00 -0.0000000000e+00 -9.9497348460e+01 9.9505453371e+01 1.2700000000e+00 0.0000e+00 -1.0000e+00
      -13  1    1    2    0    0 -2.5236971000e+01 +4.3462614056e+01 +7.0918615729e+00 5.0756370934e+01 1.0566000000e-01 0.0000e+00 1.0000e+00
       13  1    1    2    0    0 +4.8541203137e+01 -2.9801507003e+00 +8.6127317422e+01 9.8909330553e+01 1.0566000000e-01 0.0000e+00 -1.0000e+00
    10002  1    1    2    0    0 +6.3477753662e+01 +3.7615942155e+01 +1.1762638743e+02 1.7111502369e+02 1.0000000000e+02 0.0000e+00 0.0000e+00
   -10002  1    1    2    0    0 -8.6781985799e+01 -7.8098405510e+01 +8.8116802029e+01 1.7718646902e+02 1.0000000000e+02 0.0000e+00 0.0000e+00
<mgrwt>
<rscale>  0 0.39823715E+03</rscale>
<asrwt>0</asrwt>
<pdfrwt beam="1">  1        4 0.99616194E-01 0.39823715E+03</pdfrwt>
<pdfrwt beam="2">  1       -4 0.24875604E-01 0.39823715E+03</pdfrwt>
<totfact> 0.24607267E+01</totfact>
</mgrwt>
</event>
<event>
 6      1 +2.6141198e-09 5.15025400e+02 7.81860800e-03 1.00993000e-01
        4 -1    0    0  501    0 +0.0000000000e+00 +0.0000000000e+00 +1.3406970565e+03 1.3406976580e+03 1.2700000000e+00 0.0000e+00 -1.0000e+00
       -4 -1    0    0    0  501 -0.0000000000e+00 -0.0000000000e+00 -4.9452665808e+01 4.9468970634e+01 1.2700000000e+00 0.0000e+00 -1.0000e+00
      -13  1    1    2    0    0 -2.3027553144e+00 -4.1239230710e+01 +8.8815773181e+01 9.7950138139e+01 1.0566000000e-01 0.0000e+00 -1.0000e+00
       13  1    1    2    0    0 +3.0642390754e+01 +4.1730799427e+01 +5.9584003863e+01 7.8934659132e+01 1.0566000000e-01 0.0000e+00 1.0000e+00
    10002  1    1    2    0    0 -1.4619187731e+02 +1.1975328741e+00 +2.4553019897e+02 3.0275167660e+02 1.0000000000e+02 0.0000e+00 0.0000e+00
   -10002  1    1    2    0    0 +1.1785224187e+02 -1.6891015909e+00 +8.9731441469e+02 9.1053015479e+02 1.0000000000e+02 0.0000e+00 0.0000e+00
<mgrwt>
<rscale>  0 0.51502542E+03</rscale>
<asrwt>0</asrwt>
<pdfrwt beam="1">  1        4 0.33517636E+00 0.51502542E+03</pdfrwt>
<pdfrwt beam="2">  1       -4 0.12365281E-01 0.51502542E+03</pdfrwt>
<totfact> 0.21230012E+00</totfact>
</mgrwt>
</event>
<event>
 6      1 +2.6141198e-09 1.11709700e+03 7.81860800e-03 9.18868600e-02
       -4 -1    0    0    0  501 -0.0000000000e+00 +0.0000000000e+00 +7.6075022244e+02 7.6075128251e+02 1.2700000000e+00 0.0000e+00 -1.0000e+00
        4 -1    0    0  501    0 +0.0000000000e+00 -0.0000000000e+00 -4.1008835571e+02 4.1009032223e+02 1.2700000000e+00 0.0000e+00 -1.0000e+00
      -13  1    1    2    0    0 +3.5878227915e+01 -1.3700377673e+02 -3.8960721995e+01 1.4688509488e+02 1.0566000000e-01 0.0000e+00 -1.0000e+00
       13  1    1    2    0    0 -1.5405287352e+01 -4.0202206587e+01 +3.6459860373e+01 5.6416955566e+01 1.0566000000e-01 0.0000e+00 1.0000e+00
    10002  1    1    2    0    0 +7.0991574776e+01 -3.2048124453e+02 +2.8731208174e+02 4.4754470626e+02 1.0000000000e+02 0.0000e+00 0.0000e+00
   -10002  1    1    2    0    0 -9.1464515339e+01 +4.9768722785e+02 +6.5850646613e+01 5.1999484804e+02 1.0000000000e+02 0.0000e+00 0.0000e+00
<mgrwt>
<rscale>  0 0.11170973E+04</rscale>
<asrwt>0</asrwt>
<pdfrwt beam="1">  1        4 0.10252247E+00 0.11170973E+04</pdfrwt>
<pdfrwt beam="2">  1       -4 0.19018793E+00 0.11170973E+04</pdfrwt>
<totfact> 0.22941587E-01</totfact>
</mgrwt>
</event>
<event>
 6      1 +2.6141198e-09 4.09837900e+02 7.81860800e-03 1.04042500e-01
       -4 -1    0    0    0  501 -0.0000000000e+00 +0.0000000000e+00 +1.1873271408e+02 1.1873950603e+02 1.2700000000e+00 0.0000e+00 -1.0000e+00
        4 -1    0    0  501    0 +0.0000000000e+00 -0.0000000000e+00 -3.5364842725e+02 3.5365070761e+02 1.2700000000e+00 0.0000e+00 -1.0000e+00
      -13  1    1    2    0    0 -3.8145640205e+01 -4.0887720280e+01 -3.4879829536e+01 6.5905304861e+01 1.0566000000e-01 0.0000e+00 -1.0000e+00
       13  1    1    2    0    0 +4.2861607382e+01 -1.8777294369e+01 +1.9365319531e+01 5.0643172647e+01 1.0566000000e-01 0.0000e+00 1.0000e+00
    10002  1    1    2    0    0 +1.7142554572e+01 -3.0881649308e+01 -1.8764042586e+02 2.1553763676e+02 1.0000000000e+02 0.0000e+00 0.0000e+00
   -10002  1    1    2    0    0 -2.1858521750e+01 +9.0546663957e+01 -3.1760777299e+01 1.4030409938e+02 1.0000000000e+02 0.0000e+00 0.0000e+00
<mgrwt>
<rscale>  0 0.40983792E+03</rscale>
<asrwt>0</asrwt>
<pdfrwt beam="1">  1        4 0.88413239E-01 0.40983792E+03</pdfrwt>
<pdfrwt beam="2">  1       -4 0.29684313E-01 0.40983792E+03</pdfrwt>
<totfact> 0.23266840E+01</totfact>
</mgrwt>
</event>
<event>
 6      1 +2.6141198e-09 4.62101200e+02 7.81860800e-03 1.02417400e-01
        4 -1    0    0  501    0 +0.0000000000e+00 +0.0000000000e+00 +5.3060239592e+01 5.3075436179e+01 1.2700000000e+00 0.0000e+00 -1.0000e+00
       -4 -1    0    0    0  501 -0.0000000000e+00 -0.0000000000e+00 -1.0059491736e+03 1.0059499752e+03 1.2700000000e+00 0.0000e+00 -1.0000e+00
      -13  1    1    2    0    0 +5.4151927473e+01 -2.2929439780e+01 -3.4588438358e+01 6.8224348218e+01 1.0566000000e-01 0.0000e+00 -1.0000e+00
       13  1    1    2    0    0 +2.2646571861e-01 +1.3391564328e+01 -1.5638479029e+01 2.0590251874e+01 1.0566000000e-01 0.0000e+00 1.0000e+00
    10002  1    1    2    0    0 +2.4806970068e+01 +2.1098908273e+01 -6.6794194323e+01 1.2458737532e+02 1.0000000000e+02 0.0000e+00 0.0000e+00
   -10002  1    1    2    0    0 -7.9185363259e+01 -1.1561032821e+01 -8.3586782225e+02 8.4562343600e+02 1.0000000000e+02 0.0000e+00 0.0000e+00
<mgrwt>
<rscale>  0 0.46210118E+03</rscale>
<asrwt>0</asrwt>
<pdfrwt beam="1">  1        4 0.13267063E-01 0.46210118E+03</pdfrwt>
<pdfrwt beam="2">  1       -4 0.25148923E+00 0.46210118E+03</pdfrwt>
<totfact> 0.60485899E+00</totfact>
</mgrwt>
</event>
<event>
 6      1 +2.6141198e-09 3.94924700e+02 7.81860800e-03 1.04555100e-01
       -4 -1    0    0    0  501 -0.0000000000e+00 +0.0000000000e+00 +1.5181157747e+02 1.5181688956e+02 1.2700000000e+00 0.0000e+00 -1.0000e+00
        4 -1    0    0  501    0 +0.0000000000e+00 -0.0000000000e+00 -2.5682929300e+02 2.5683243301e+02 1.2700000000e+00 0.0000e+00 -1.0000e+00
      -13  1    1    2    0    0 +2.1795922369e+01 +2.0424385200e+01 +9.0406189751e+00 3.1208359428e+01 1.0566000000e-01 0.0000e+00 -1.0000e+00
       13  1    1    2    0    0 -2.2707498796e+01 +1.2276701810e+00 -8.4273400369e+01 8.7287770332e+01 1.0566000000e-01 0.0000e+00 1.0000e+00
    10002  1    1    2    0    0 +6.2938210208e+01 -9.3556468453e+01 -1.4742023830e+01 1.5143103500e+02 1.0000000000e+02 0.0000e+00 0.0000e+00
   -10002  1    1    2    0    0 -6.2026633780e+01 +7.1904413072e+01 -1.5042910306e+01 1.3872215781e+02 1.0000000000e+02 0.0000e+00 0.0000e+00
<mgrwt>
<rscale>  0 0.39492474E+03</rscale>
<asrwt>0</asrwt>
<pdfrwt beam="1">  1        4 0.64208379E-01 0.39492474E+03</pdfrwt>
<pdfrwt beam="2">  1       -4 0.37953951E-01 0.39492474E+03</pdfrwt>
<totfact> 0.29311371E+01</totfact>
</mgrwt>
</event>
<event>
 6      1 +2.6141198e-09 5.31627900e+02 7.81860800e-03 1.00583800e-01
       -4 -1    0    0    0  501 -0.0000000000e+00 +0.0000000000e+00 +2.7361620924e+02 2.7361915660e+02 1.2700000000e+00 0.0000e+00 -1.0000e+00
        4 -1    0    0  501    0 +0.0000000000e+00 -0.0000000000e+00 -2.5822829531e+02 2.5823141830e+02 1.2700000000e+00 0.0000e+00 -1.0000e+00
      -13  1    1    2    0    0 +6.9865678805e+01 -2.9259475421e+01 +1.2235931402e+01 7.6727173532e+01 1.0566000000e-01 0.0000e+00 1.0000e+00
       13  1    1    2    0    0 -2.4848055589e+01 +1.0395645960e+01 +3.0637710775e+01 4.0794310965e+01 1.0566000000e-01 0.0000e+00 -1.0000e+00
    10002  1    1    2    0    0 -1.6106886986e+02 -1.4183748992e+01 +9.7699815021e+01 2.1375128872e+02 1.0000000000e+02 0.0000e+00 0.0000e+00
   -10002  1    1    2    0    0 +1.1605124664e+02 +3.3047578453e+01 -1.2518554327e+02 2.0057780169e+02 1.0000000000e+02 0.0000e+00 0.0000e+00
<mgrwt>
<rscale>  0 0.53162792E+03</rscale>
<asrwt>0</asrwt>
<pdfrwt beam="1">  1        4 0.64557833E-01 0.53162792E+03</pdfrwt>
<pdfrwt beam="2">  1       -4 0.68404811E-01 0.53162792E+03</pdfrwt>
<totfact> 0.85958859E+00</totfact>
</mgrwt>
</event>
<event>
 6      1 +2.6141198e-09 3.73338600e+02 7.81860800e-03 1.05342400e-01
       -4 -1    0    0    0  501 -0.0000000000e+00 +0.0000000000e+00 +4.9499561102e+01 4.9515850486e+01 1.2700000000e+00 0.0000e+00 1.0000e+00
        4 -1    0    0  501    0 +0.0000000000e+00 -0.0000000000e+00 -7.0382145813e+02 7.0382260394e+02 1.2700000000e+00 0.0000e+00 1.0000e+00
      -13  1    1    2    0    0 -2.1867596118e+01 -6.4862373093e+00 -2.3193839153e+01 3.2530422270e+01 1.0566000000e-01 0.0000e+00 -1.0000e+00
       13  1    1    2    0    0 +3.5168841079e+01 +7.1351408720e+01 -1.0667468082e+02 1.3306904073e+02 1.0566000000e-01 0.0000e+00 1.0000e+00
    10002  1    1    2    0    0 +6.5323248070e+01 -6.4199378880e+01 -2.3030899813e+02 2.6726563865e+02 1.0000000000e+02 0.0000e+00 0.0000e+00
   -10002  1    1    2    0    0 -7.8624493031e+01 -6.6579253104e-01 -2.9414437892e+02 3.2047335277e+02 1.0000000000e+02 0.0000e+00 0.0000e+00
<mgrwt>
<rscale>  0 0.37333856E+03</rscale>
<asrwt>0</asrwt>
<pdfrwt beam="1">  1        4 0.17595751E+00 0.37333856E+03</pdfrwt>
<pdfrwt beam="2">  1       -4 0.12377072E-01 0.37333856E+03</pdfrwt>
<totfact> 0.20397560E+01</totfact>
</mgrwt>
</event>
<event>
 6      1 +2.6141198e-09 5.15798500e+02 7.81860800e-03 1.00973600e-01
        4 -1    0    0  501    0 +0.0000000000e+00 +0.0000000000e+00 +1.8091773742e+02 1.8092219491e+02 1.2700000000e+00 0.0000e+00 -1.0000e+00
       -4 -1    0    0    0  501 -0.0000000000e+00 -0.0000000000e+00 -3.6762668156e+02 3.6762887522e+02 1.2700000000e+00 0.0000e+00 -1.0000e+00
      -13  1    1    2    0    0 +5.3038391613e+00 -4.1509028026e+01 -1.9681222538e+00 4.1892896614e+01 1.0566000000e-01 0.0000e+00 1.0000e+00
       13  1    1    2    0    0 +1.7047031194e+01 +5.6616837903e+01 -2.6569099331e+01 6.4822803164e+01 1.0566000000e-01 0.0000e+00 -1.0000e+00
    10002  1    1    2    0    0 -3.0322381070e+01 -9.4432538480e+01 -2.4823999399e+02 2.8541206305e+02 1.0000000000e+02 0.0000e+00 0.0000e+00
   -10002  1    1    2    0    0 +7.9715107153e+00 +7.9324728602e+01 +9.0068271428e+01 1.5642330731e+02 1.0000000000e+02 0.0000e+00 0.0000e+00
<mgrwt>
<rscale>  0 0.51579846E+03</rscale>
<asrwt>0</asrwt>
<pdfrwt beam="1">  1        4 0.45230266E-01 0.51579846E+03</pdfrwt>
<pdfrwt beam="2">  1       -4 0.91907501E-01 0.51579846E+03</pdfrwt>
<totfact> 0.93298669E+00</totfact>
</mgrwt>
</event>
<event>
 6      1 +2.6141198e-09 4.38274400e+02 7.81860800e-03 1.03127800e-01
       -4 -1    0    0    0  501 -0.0000000000e+00 +0.0000000000e+00 +1.0028648537e+02 1.0029452651e+02 1.2700000000e+00 0.0000e+00 1.0000e+00
        4 -1    0    0  501    0 +0.0000000000e+00 -0.0000000000e+00 -4.7881128732e+02 4.7881297159e+02 1.2700000000e+00 0.0000e+00 1.0000e+00
      -13  1    1    2    0    0 +2.9268131228e+01 +1.7731963590e+01 -1.2213804768e+01 3.6335027580e+01 1.0566000000e-01 0.0000e+00 -1.0000e+00
       13  1    1    2    0    0 -7.6927529865e+01 +3.9815052506e+01 -1.3863658651e+02 1.6347231430e+02 1.0566000000e-01 0.0000e+00 1.0000e+00
    10002  1    1    2    0    0 +4.8128599883e+01 +7.5237223271e+01 -7.5166163355e+01 1.5371061774e+02 1.0000000000e+02 0.0000e+00 0.0000e+00
   -10002  1    1    2    0    0 -4.6920124573e-01 -1.3278423937e+02 -1.5250824731e+02 2.2558953848e+02 1.0000000000e+02 0.0000e+00 0.0000e+00
<mgrwt>
<rscale>  0 0.43827442E+03</rscale>
<asrwt>0</asrwt>
<pdfrwt beam="1">  1        4 0.11970403E+00 0.43827442E+03</pdfrwt>
<pdfrwt beam="2">  1       -4 0.25072838E-01 0.43827442E+03</pdfrwt>
<totfact> 0.15651941E+01</totfact>
</mgrwt>
</event>
<event>
 6      1 +2.6141198e-09 4.20116200e+02 7.81860800e-03 1.03702900e-01
       -4 -1    0    0    0  501 -0.0000000000e+00 +0.0000000000e+00 +1.6142270215e+02 1.6142769796e+02 1.2700000000e+00 0.0000e+00 1.0000e+00
        4 -1    0    0  501    0 +0.0000000000e+00 -0.0000000000e+00 -2.7333620317e+02 2.7333915355e+02 1.2700000000e+00 0.0000e+00 1.0000e+00
      -13  1    1    2    0    0 +1.7177394941e+01 -4.1820413722e+01 -3.9227899669e+01 5.9856905845e+01 1.0566000000e-01 0.0000e+00 -1.0000e+00
       13  1    1    2    0    0 -3.5752396621e+01 +1.8331799635e+01 +1.6456108111e+01 4.3417777468e+01 1.0566000000e-01 0.0000e+00 1.0000e+00
    10002  1    1    2    0    0 +1.1824895396e+02 +5.9106428586e+01 -8.3899566037e+01 1.8578353585e+02 1.0000000000e+02 0.0000e+00 0.0000e+00
   -10002  1    1    2    0    0 -9.9673952282e+01 -3.5617814499e+01 -5.2421434255e+00 1.4570863235e+02 1.0000000000e+02 0.0000e+00 0.0000e+00
<mgrwt>
<rscale>  0 0.42011615E+03</rscale>
<asrwt>0</asrwt>
<pdfrwt beam="1">  1        4 0.68335043E-01 0.42011615E+03</pdfrwt>
<pdfrwt beam="2">  1       -4 0.40356669E-01 0.42011615E+03</pdfrwt>
<totfact> 0.22730697E+01</totfact>
</mgrwt>
</event>
<event>
 6      1 +2.6141198e-09 3.60674400e+02 7.81860800e-03 1.05831700e-01
        4 -1    0    0  501    0 +0.0000000000e+00 +0.0000000000e+00 +3.7492958918e+02 3.7493174011e+02 1.2700000000e+00 0.0000e+00 1.0000e+00
       -4 -1    0    0    0  501 -0.0000000000e+00 -0.0000000000e+00 -8.6733247088e+01 8.6742544639e+01 1.2700000000e+00 0.0000e+00 1.0000e+00
      -13  1    1    2    0    0 +1.3809873501e+01 -5.0340178595e+01 +2.2564004341e+01 5.6868195356e+01 1.0566000000e-01 0.0000e+00 -1.0000e+00
       13  1    1    2    0    0 -2.5612973076e+01 +2.2773408092e+01 +9.0744968268e+01 9.7001613058e+01 1.0566000000e-01 0.0000e+00 1.0000e+00
    10002  1    1    2    0    0 +1.6930862294e+00 +7.8604848632e+01 +4.2934201080e+01 1.3425697148e+02 1.0000000000e+02 0.0000e+00 0.0000e+00
   -10002  1    1    2    0    0 +1.0110013346e+01 -5.1038078129e+01 +1.3195316840e+02 1.7354750485e+02 1.0000000000e+02 0.0000e+00 0.0000e+00
<mgrwt>
<rscale>  0 0.36067439E+03</rscale>
<asrwt>0</asrwt>
<pdfrwt beam="1">  1        4 0.93733827E-01 0.36067439E+03</pdfrwt>
<pdfrwt beam="2">  1       -4 0.21684743E-01 0.36067439E+03</pdfrwt>
<totfact> 0.36382365E+01</totfact>
</mgrwt>
</event>
<event>
 6      1 +2.6141198e-09 4.55185200e+02 7.81860800e-03 1.02618700e-01
        4 -1    0    0  501    0 +0.0000000000e+00 +0.0000000000e+00 +1.7887339349e+02 1.7887790193e+02 1.2700000000e+00 0.0000e+00 -1.0000e+00
       -4 -1    0    0    0  501 -0.0000000000e+00 -0.0000000000e+00 -2.8957171378e+02 2.8957449875e+02 1.2700000000e+00 0.0000e+00 -1.0000e+00
      -13  1    1    2    0    0 -1.0030187661e+01 -4.5468660037e+01 -2.5928646723e+01 5.3294555022e+01 1.0566000000e-01 0.0000e+00 1.0000e+00
       13  1    1    2    0    0 -1.0811253312e+02 +2.9723059251e+01 -1.8757024534e+01 1.1368208831e+02 1.0566000000e-01 0.0000e+00 -1.0000e+00
    10002  1    1    2    0    0 +1.0985859934e+02 +8.3480425942e+01 -5.8543006782e+01 1.8018095629e+02 1.0000000000e+02 0.0000e+00 0.0000e+00
   -10002  1    1    2    0    0 +8.2841214436e+00 -6.7734825156e+01 -7.4696422577e+00 1.2129480105e+02 1.0000000000e+02 0.0000e+00 0.0000e+00
<mgrwt>
<rscale>  0 0.45518516E+03</rscale>
<asrwt>0</asrwt>
<pdfrwt beam="1">  1        4 0.44719260E-01 0.45518516E+03</pdfrwt>
<pdfrwt beam="2">  1       -4 0.72393840E-01 0.45518516E+03</pdfrwt>
<totfact> 0.16331640E+01</totfact>
</mgrwt>
</event>
<event>
 6      1 +2.6141198e-09 3.51591200e+02 7.81860800e-03 1.06196400e-01
       -4 -1    0    0    0  501 -0.0000000000e+00 +0.0000000000e+00 +3.4211641129e+02 3.4211876852e+02 1.2700000000e+00 0.0000e+00 -1.0000e+00
        4 -1    0    0  501    0 +0.0000000000e+00 -0.0000000000e+00 -9.0324979558e+01 9.0333907433e+01 1.2700000000e+00 0.0000e+00 -1.0000e+00
      -13  1    1    2    0    0 +7.5506375911e+00 +3.1451983749e+01 +1.1940715765e+02 1.2371062959e+02 1.0566000000e-01 0.0000e+00 -1.0000e+00
       13  1    1    2    0    0 -1.0447480231e+01 -3.0943363151e+01 +1.5902036331e+01 3.6325300959e+01 1.0566000000e-01 0.0000e+00 1.0000e+00
    10002  1    1    2    0    0 +5.9709169650e+01 +2.8300733948e+01 +2.4455239848e+01 1.2232814573e+02 1.0000000000e+02 0.0000e+00 0.0000e+00
   -10002  1    1    2    0    0 -5.6812327010e+01 -2.8809354546e+01 +9.2026997897e+01 1.5008859967e+02 1.0000000000e+02 0.0000e+00 0.0000e+00
<mgrwt>
<rscale>  0 0.35159123E+03</rscale>
<asrwt>0</asrwt>
<pdfrwt beam="1">  1        4 0.22582656E-01 0.35159123E+03</pdfrwt>
<pdfrwt beam="2">  1       -4 0.85530513E-01 0.35159123E+03</pdfrwt>
<totfact> 0.41589433E+01</totfact>
</mgrwt>
</event>
<event>
 6      1 +2.6141198e-09 4.03895200e+02 7.81860800e-03 1.04243900e-01
        4 -1    0    0  501    0 +0.0000000000e+00 +0.0000000000e+00 +6.8872380425e+01 6.8884088769e+01 1.2700000000e+00 0.0000e+00 1.0000e+00
       -4 -1    0    0    0  501 -0.0000000000e+00 -0.0000000000e+00 -5.9208798268e+02 5.9208934472e+02 1.2700000000e+00 0.0000e+00 1.0000e+00
      -13  1    1    2    0    0 -9.0374778573e+00 -3.4320815999e+01 -3.7424468533e+01 5.1577092065e+01 1.0566000000e-01 0.0000e+00 -1.0000e+00
       13  1    1    2    0    0 -3.1675172427e+01 +7.3652577912e+01 -3.8077817433e+01 8.8757817266e+01 1.0566000000e-01 0.0000e+00 1.0000e+00
    10002  1    1    2    0    0 -4.7148264514e+00 -8.0034920577e+01 -1.3242052197e+02 1.8429056606e+02 1.0000000000e+02 0.0000e+00 0.0000e+00
   -10002  1    1    2    0    0 +4.5427476736e+01 +4.0703158664e+01 -3.1529279432e+02 3.3634795810e+02 1.0000000000e+02 0.0000e+00 0.0000e+00
<mgrwt>
<rscale>  0 0.40389518E+03</rscale>
<asrwt>0</asrwt>
<pdfrwt beam="1">  1        4 0.17219731E-01 0.40389518E+03</pdfrwt>
<pdfrwt beam="2">  1       -4 0.14802361E+00 0.40389518E+03</pdfrwt>
<totfact> 0.18169596E+01</totfact>
</mgrwt>
</event>
<event>
 6      1 +2.6141198e-09 4.34700800e+02 7.81860800e-03 1.03238500e-01
        4 -1    0    0  501    0 +0.0000000000e+00 +0.0000000000e+00 +1.5464752569e+02 1.5465274037e+02 1.2700000000e+00 0.0000e+00 1.0000e+00
       -4 -1    0    0    0  501 -0.0000000000e+00 -0.0000000000e+00 -3.0546488422e+02 3.0546752429e+02 1.2700000000e+00 0.0000e+00 1.0000e+00
      -13  1    1    2    0    0 +3.9686077886e+01 +2.6120164620e+01 +1.2043893057e+01 4.9013409408e+01 1.0566000000e-01 0.0000e+00 -1.0000e+00
       13  1    1    2    0    0 +2.4740466177e+01 -3.9750398143e+01 -2.3951621142e+01 5.2591597604e+01 1.0566000000e-01 0.0000e+00 1.0000e+00
    10002  1    1    2    0    0 +2.7044543751e+01 +1.1978060875e+02 -6.6540593215e+01 1.7177442221e+02 1.0000000000e+02 0.0000e+00 0.0000e+00
   -10002  1    1    2    0    0 -9.1471087815e+01 -1.0615037523e+02 -7.2369037233e+01 1.8674083543e+02 1.0000000000e+02 0.0000e+00 0.0000e+00
<mgrwt>
<rscale>  0 0.43470080E+03</rscale>
<asrwt>0</asrwt>
<pdfrwt beam="1">  1        4 0.38662864E-01 0.43470080E+03</pdfrwt>
<pdfrwt beam="2">  1       -4 0.76367202E-01 0.43470080E+03</pdfrwt>
<totfact> 0.19401460E+01</totfact>
</mgrwt>
</event>
<event>
 6      1 +2.6141198e-09 5.59249300e+02 7.81860800e-03 9.99375500e-02
        4 -1    0    0  501    0 +0.0000000000e+00 +0.0000000000e+00 +5.5031800533e+02 5.5031947076e+02 1.2700000000e+00 0.0000e+00 -1.0000e+00
       -4 -1    0    0    0  501 -0.0000000000e+00 -0.0000000000e+00 -1.4207688652e+02 1.4208256256e+02 1.2700000000e+00 0.0000e+00 -1.0000e+00
      -13  1    1    2    0    0 -1.9943305499e+01 +3.3467355924e+01 +7.3912295832e+01 8.3551409240e+01 1.0566000000e-01 0.0000e+00 1.0000e+00
       13  1    1    2    0    0 +9.9706641760e+01 +2.5743252446e+01 +2.0386020003e+02 2.2839247312e+02 1.0566000000e-01 0.0000e+00 -1.0000e+00
    10002  1    1    2    0    0 -1.5941520327e+01 +1.1021061357e+02 +4.1548159708e+01 1.5532791439e+02 1.0000000000e+02 0.0000e+00 0.0000e+00
   -10002  1    1    2    0    0 -6.3821815934e+01 -1.6942122194e+02 +8.8920463245e+01 2.2513023657e+02 1.0000000000e+02 0.0000e+00 0.0000e+00
<mgrwt>
<rscale>  0 0.55924929E+03</rscale>
<asrwt>0</asrwt>
<pdfrwt beam="1">  1        4 0.13758039E+00 0.55924929E+03</pdfrwt>
<pdfrwt beam="2">  1       -4 0.35520115E-01 0.55924929E+03</pdfrwt>
<totfact> 0.56787866E+00</totfact>
</mgrwt>
</event>
<event>
 6      1 +2.6141198e-09 3.89207900e+02 7.81860800e-03 1.04758200e-01
       -4 -1    0    0    0  501 -0.0000000000e+00 +0.0000000000e+00 +4.1455524117e+02 4.1455718650e+02 1.2700000000e+00 0.0000e+00 1.0000e+00
        4 -1    0    0  501    0 +0.0000000000e+00 -0.0000000000e+00 -9.1346011608e+01 9.1354839701e+01 1.2700000000e+00 0.0000e+00 1.0000e+00
      -13  1    1    2    0    0 +4.3277394620e+01 -1.4673766591e+01 +7.2217546501e+00 4.6264643254e+01 1.0566000000e-01 0.0000e+00 1.0000e+00
       13  1    1    2    0    0 -6.3979666604e+01 -1.3029529370e+01 +1.8025470702e+01 6.7735479126e+01 1.0566000000e-01 0.0000e+00 -1.0000e+00
    10002  1    1    2    0    0 +7.4602169266e+01 +5.6320882762e+01 +1.4767143048e+02 2.0135634302e+02 1.0000000000e+02 0.0000e+00 0.0000e+00
   -10002  1    1    2    0    0 -5.3899897282e+01 -2.8617586801e+01 +1.5029057373e+02 1.9055556080e+02 1.0000000000e+02 0.0000e+00 0.0000e+00
<mgrwt>
<rscale>  0 0.38920788E+03</rscale>
<asrwt>0</asrwt>
<pdfrwt beam="1">  1        4 0.22837850E-01 0.38920788E+03</pdfrwt>
<pdfrwt beam="2">  1       -4 0.10364016E+00 0.38920788E+03</pdfrwt>
<totfact> 0.26234458E+01</totfact>
</mgrwt>
</event>
<event>
 6      1 +2.6141198e-09 4.71741200e+02 7.81860800e-03 1.02143000e-01
       -4 -1    0    0    0  501 -0.0000000000e+00 +0.0000000000e+00 +5.4564378665e+01 5.4579156453e+01 1.2700000000e+00 0.0000e+00 1.0000e+00
        4 -1    0    0  501    0 +0.0000000000e+00 -0.0000000000e+00 -1.0194669155e+03 1.0194677066e+03 1.2700000000e+00 0.0000e+00 1.0000e+00
      -13  1    1    2    0    0 -3.4456943717e+01 -2.6363460296e+01 -1.8787701642e+01 4.7278979537e+01 1.0566000000e-01 0.0000e+00 -1.0000e+00
       13  1    1    2    0    0 +2.7215120304e+01 -2.2275691126e+01 -1.6590575825e+02 1.6959245553e+02 1.0566000000e-01 0.0000e+00 1.0000e+00
    10002  1    1    2    0    0 +9.6096704258e+01 -4.1008863060e+01 -1.5684108187e+02 2.1334345170e+02 1.0000000000e+02 0.0000e+00 0.0000e+00
   -10002  1    1    2    0    0 -8.8854880845e+01 +8.9648014481e+01 -6.2336799507e+02 6.4383197624e+02 1.0000000000e+02 0.0000e+00 0.0000e+00
<mgrwt>
<rscale>  0 0.47174120E+03</rscale>
<asrwt>0</asrwt>
<pdfrwt beam="1">  1        4 0.25486861E+00 0.47174120E+03</pdfrwt>
<pdfrwt beam="2">  1       -4 0.13643044E-01 0.47174120E+03</pdfrwt>
<totfact> 0.54946002E+00</totfact>
</mgrwt>
</event>
<event>
 6      1 +2.6141198e-09 5.57267200e+02 7.81860800e-03 9.99825700e-02
        4 -1    0    0  501    0 +0.0000000000e+00 +0.0000000000e+00 +2.8467596283e+02 2.8467879569e+02 1.2700000000e+00 0.0000e+00 -1.0000e+00
       -4 -1    0    0    0  501 -0.0000000000e+00 -0.0000000000e+00 -2.7271384007e+02 2.7271679718e+02 1.2700000000e+00 0.0000e+00 -1.0000e+00
      -13  1    1    2    0    0 +4.7446555346e+01 -1.2198456597e+00 -3.8538539156e+01 6.1138316970e+01 1.0566000000e-01 0.0000e+00 1.0000e+00
       13  1    1    2    0    0 +2.9616897437e+01 +9.3678265474e+01 -6.9271297185e+01 1.2021356751e+02 1.0566000000e-01 0.0000e+00 -1.0000e+00
    10002  1    1    2    0    0 +9.2881724103e+01 -3.6766502938e+01 +5.5398717789e+00 1.4145487121e+02 1.0000000000e+02 0.0000e+00 0.0000e+00
   -10002  1    1    2    0    0 -1.6994517689e+02 -5.5691916876e+01 +1.1423208732e+02 2.3458883717e+02 1.0000000000e+02 0.0000e+00 0.0000e+00
<mgrwt>
<rscale>  0 0.55726722E+03</rscale>
<asrwt>0</asrwt>
<pdfrwt beam="1">  1        4 0.71169714E-01 0.55726722E+03</pdfrwt>
<pdfrwt beam="2">  1       -4 0.68179184E-01 0.55726722E+03</pdfrwt>
<totfact> 0.69991004E+00</totfact>
</mgrwt>
</event>
<event>
 6      1 +2.6141198e-09 4.64864400e+02 7.81860800e-03 1.02338000e-01
       -4 -1    0    0    0  501 -0.0000000000e+00 +0.0000000000e+00 +1.5047960232e+03 1.5047965591e+03 1.2700000000e+00 0.0000e+00 1.0000e+00
        4 -1    0    0  501    0 +0.0000000000e+00 -0.0000000000e+00 -3.5889915249e+01 3.5912378320e+01 1.2700000000e+00 0.0000e+00 1.0000e+00
      -13  1    1    2    0    0 -8.8040542210e+01 -1.0202504091e+01 +1.9282877828e+02 2.1222199948e+02 1.0566000000e-01 0.0000e+00 -1.0000e+00
       13  1    1    2    0    0 +1.4696672211e+01 +2.8455109807e+01 +4.4808563558e+01 5.5077254655e+01 1.0566000000e-01 0.0000e+00 1.0000e+00
    10002  1    1    2    0    0 +7.9600654810e+00 +1.0990916977e+02 +5.1953555260e+02 5.4042629345e+02 1.0000000000e+02 0.0000e+00 0.0000e+00
   -10002  1    1    2    0    0 +6.5383804517e+01 -1.2816177549e+02 +7.1173321347e+02 7.3298338982e+02 1.0000000000e+02 0.0000e+00 0.0000e+00
<mgrwt>
<rscale>  0 0.46486436E+03</rscale>
<asrwt>0</asrwt>
<pdfrwt beam="1">  1        4 0.89753535E-02 0.46486436E+03</pdfrwt>
<pdfrwt beam="2">  1       -4 0.37620189E+00 0.46486436E+03</pdfrwt>
<totfact> 0.20260027E+00</totfact>
</mgrwt>
</event>
<event>
 6      1 +2.6141198e-09 5.83330200e+02 7.81860800e-03 9.94060700e-02
       -4 -1    0    0    0  501 -0.0000000000e+00 +0.0000000000e+00 +3.5972477083e+02 3.5972701268e+02 1.2700000000e+00 0.0000e+00 -1.0000e+00
        4 -1    0    0  501    0 +0.0000000000e+00 -0.0000000000e+00 -2.3647760619e+02 2.3648101642e+02 1.2700000000e+00 0.0000e+00 -1.0000e+00
      -13  1    1    2    0    0 +6.7755262984e+00 -4.3788104501e+01 +9.3495746760e+00 4.5285003733e+01 1.0566000000e-01 0.0000e+00 -1.0000e+00
       13  1    1    2    0    0 +2.3252263111e+01 -1.6455079148e+01 -9.2536680423e+01 9.6821928081e+01 1.0566000000e-01 0.0000e+00 1.0000e+00
    10002  1    1    2    0    0 +1.2541403534e+02 -7.2434260169e+01 +1.0550457749e+02 2.0519897217e+02 1.0000000000e+02 0.0000e+00 0.0000e+00
   -10002  1    1    2    0    0 -1.5544182475e+02 +1.3267744382e+02 +1.0092969290e+02 2.4890212512e+02 1.0000000000e+02 0.0000e+00 0.0000e+00
<mgrwt>
<rscale>  0 0.58333022E+03</rscale>
<asrwt>0</asrwt>
<pdfrwt beam="1">  1        4 0.59120108E-01 0.58333022E+03</pdfrwt>
<pdfrwt beam="2">  1       -4 0.89931899E-01 0.58333022E+03</pdfrwt>
<totfact> 0.56176121E+00</totfact>
</mgrwt>
</event>
<event>
 6      1 +2.6141198e-09 4.43504000e+02 7.81860800e-03 1.02967700e-01
       -4 -1    0    0    0  501 -0.0000000000e+00 +0.0000000000e+00 +6.8325236490e+02 6.8325354521e+02 1.2700000000e+00 0.0000e+00 -1.0000e+00
        4 -1    0    0  501    0 +0.0000000000e+00 -0.0000000000e+00 -7.1963552529e+01 7.1974758023e+01 1.2700000000e+00 0.0000e+00 -1.0000e+00
      -13  1    1    2    0    0 -1.6501081957e+01 -5.1788540996e-01 +6.6803387598e+01 6.8813208540e+01 1.0566000000e-01 0.0000e+00 1.0000e+00
       13  1    1    2    0    0 +8.7517048799e+01 +2.8744048898e+01 +6.1901482644e+01 1.1098314690e+02 1.0566000000e-01 0.0000e+00 -1.0000e+00
    10002  1    1    2    0    0 -2.2112137774e+01 +1.0029317965e+02 +2.2605715294e+02 2.6767425150e+02 1.0000000000e+02 0.0000e+00 0.0000e+00
   -10002  1    1    2    0    0 -4.8903829068e+01 -1.2851934314e+02 +2.5652678919e+02 3.0775769630e+02 1.0000000000e+02 0.0000e+00 0.0000e+00
<mgrwt>
<rscale>  0 0.44350398E+03</rscale>
<asrwt>0</asrwt>
<pdfrwt beam="1">  1        4 0.17992436E-01 0.44350398E+03</pdfrwt>
<pdfrwt beam="2">  1       -4 0.17081464E+00 0.44350398E+03</pdfrwt>
<totfact> 0.11477267E+01</totfact>
</mgrwt>
</event>
<event>
 6      1 +2.6141198e-09 5.73738000e+02 7.81860800e-03 9.96144100e-02
        4 -1    0    0  501    0 +0.0000000000e+00 +0.0000000000e+00 +8.6626547427e+02 8.6626640522e+02 1.2700000000e+00 0.0000e+00 1.0000e+00
       -4 -1    0    0    0  501 -0.0000000000e+00 -0.0000000000e+00 -9.4993169507e+01 9.5001658685e+01 1.2700000000e+00 0.0000e+00 1.0000e+00
      -13  1    1    2    0    0 +5.7994417401e+01 -3.5982406411e+01 +2.1616024295e+02 2.2667895318e+02 1.0566000000e-01 0.0000e+00 1.0000e+00
       13  1    1    2    0    0 +3.5423708472e+01 +5.9681036489e+01 +2.7933379553e+02 2.8782641597e+02 1.0566000000e-01 0.0000e+00 -1.0000e+00
    10002  1    1    2    0    0 -3.9965128891e+01 +5.3750079823e+00 +3.0718990349e+02 3.2556372501e+02 1.0000000000e+02 0.0000e+00 0.0000e+00
   -10002  1    1    2    0    0 -5.3452996981e+01 -2.9073638061e+01 -3.1411637200e+01 1.2119896975e+02 1.0000000000e+02 0.0000e+00 0.0000e+00
<mgrwt>
<rscale>  0 0.57373803E+03</rscale>
<asrwt>0</asrwt>
<pdfrwt beam="1">  1        4 0.21656755E+00 0.57373803E+03</pdfrwt>
<pdfrwt beam="2">  1       -4 0.23749470E-01 0.57373803E+03</pdfrwt>
<totfact> 0.34449424E+00</totfact>
</mgrwt>
</event>
<event>
 6      1 +2.6141198e-09 8.71631900e+02 7.81860800e-03 9.46175500e-02
        4 -1    0    0  501    0 +0.0000000000e+00 +0.0000000000e+00 +4.2246072005e+02 4.2246262898e+02 1.2700000000e+00 0.0000e+00 1.0000e+00
       -4 -1    0    0    0  501 -0.0000000000e+00 -0.0000000000e+00 -4.4958952284e+02 4.4959131659e+02 1.2700000000e+00 0.0000e+00 1.0000e+00
      -13  1    1    2    0    0 -2.3681623284e+01 +6.6491485077e+01 -4.9676595366e+00 7.0757513201e+01 1.0566000000e-01 0.0000e+00 1.0000e+00
       13  1    1    2    0    0 +5.1719775679e+01 +8.9261448300e+01 -1.1968778690e+02 1.5801176806e+02 1.0566000000e-01 0.0000e+00 -1.0000e+00
    10002  1    1    2    0    0 +1.8095685982e+02 -2.1179497617e+02 -1.2114319913e+02 3.1980958670e+02 1.0000000000e+02 0.0000e+00 0.0000e+00
   -10002  1    1    2    0    0 -2.0899501222e+02 +5.6042042797e+01 +2.1866984278e+02 3.2347507761e+02 1.0000000000e+02 0.0000e+00 0.0000e+00
<mgrwt>
<rscale>  0 0.87163187E+03</rscale>
<asrwt>0</asrwt>
<pdfrwt beam="1">  1        4 0.10561564E+00 0.87163187E+03</pdfrwt>
<pdfrwt beam="2">  1       -4 0.11239784E+00 0.87163187E+03</pdfrwt>
<totfact> 0.87970533E-01</totfact>
</mgrwt>
</event>
<event>
 6      1 +2.6141198e-09 3.17768900e+02 7.81860800e-03 1.07668100e-01
        4 -1    0    0  501    0 +0.0000000000e+00 +0.0000000000e+00 +5.7765746193e+02 5.7765885800e+02 1.2700000000e+00 0.0000e+00 -1.0000e+00
       -4 -1    0    0    0  501 -0.0000000000e+00 -0.0000000000e+00 -4.3690425656e+01 4.3708880036e+01 1.2700000000e+00 0.0000e+00 -1.0000e+00
      -13  1    1    2    0    0 +1.7145109785e+01 -4.7865214745e+01 +1.1180983709e+02 1.2282705080e+02 1.0566000000e-01 0.0000e+00 -1.0000e+00
       13  1    1    2    0    0 +9.3583159031e+00 +2.2854600896e+01 +3.5073689336e+01 4.2896220187e+01 1.0566000000e-01 0.0000e+00 1.0000e+00
    10002  1    1    2    0    0 +9.5035067282e+00 -9.5155200949e+00 +2.9191195551e+02 3.0885830333e+02 1.0000000000e+02 0.0000e+00 0.0000e+00
   -10002  1    1    2    0    0 -3.6006932417e+01 +3.4526133943e+01 +9.5171554330e+01 1.4678616372e+02 1.0000000000e+02 0.0000e+00 0.0000e+00
<mgrwt>
<rscale>  0 0.31776889E+03</rscale>
<asrwt>0</asrwt>
<pdfrwt beam="1">  1        4 0.14441684E+00 0.31776889E+03</pdfrwt>
<pdfrwt beam="2">  1       -4 0.10925088E-01 0.31776889E+03</pdfrwt>
<totfact> 0.42467490E+01</totfact>
</mgrwt>
</event>
<event>
 6      1 +2.6141198e-09 3.83997300e+02 7.81860800e-03 1.04946600e-01
       -4 -1    0    0    0  501 -0.0000000000e+00 +0.0000000000e+00 +2.3646074393e+02 2.3646415440e+02 1.2700000000e+00 0.0000e+00 -1.0000e+00
        4 -1    0    0  501    0 +0.0000000000e+00 -0.0000000000e+00 -1.5588971690e+02 1.5589489002e+02 1.2700000000e+00 0.0000e+00 -1.0000e+00
      -13  1    1    2    0    0 +1.3951572246e+00 +1.5915747664e+01 +5.3035349473e+01 5.5389682660e+01 1.0566000000e-01 0.0000e+00 -1.0000e+00
       13  1    1    2    0    0 -3.7563545202e+01 +1.1933890989e+01 -6.9035788427e+00 4.0013850691e+01 1.0566000000e-01 0.0000e+00 1.0000e+00
    10002  1    1    2    0    0 -7.7021203146e+01 -5.3375764727e+01 +4.2734872585e+01 1.4355315158e+02 1.0000000000e+02 0.0000e+00 0.0000e+00
   -10002  1    1    2    0    0 +1.1318959112e+02 +2.5526126074e+01 -8.2956161889e+00 1.5340235950e+02 1.0000000000e+02 0.0000e+00 0.0000e+00
<mgrwt>
<rscale>  0 0.38399730E+03</rscale>
<asrwt>0</asrwt>
<pdfrwt beam="1">  1        4 0.38973503E-01 0.38399730E+03</pdfrwt>
<pdfrwt beam="2">  1       -4 0.59116258E-01 0.38399730E+03</pdfrwt>
<totfact> 0.33139570E+01</totfact>
</mgrwt>
</event>
<event>
 6      1 +2.6141198e-09 5.05446100e+02 7.81860800e-03 1.01236700e-01
       -4 -1    0    0    0  501 -0.0000000000e+00 +0.0000000000e+00 +3.0457437143e+02 3.0457701921e+02 1.2700000000e+00 0.0000e+00 1.0000e+00
        4 -1    0    0  501    0 +0.0000000000e+00 -0.0000000000e+00 -2.0969351356e+02 2.0969735937e+02 1.2700000000e+00 0.0000e+00 1.0000e+00
      -13  1    1    2    0    0 -7.0206409328e+01 +1.7687400310e+01 -1.7017352447e+01 7.4373284778e+01 1.0566000000e-01 0.0000e+00 1.0000e+00
       13  1    1    2    0    0 +2.5943516010e+01 -3.0864998569e+01 -3.4927059577e+01 5.3344398154e+01 1.0566000000e-01 0.0000e+00 -1.0000e+00
    10002  1    1    2    0    0 +9.1353754915e+01 +1.3598607249e+02 +6.9440956327e+01 2.0410724354e+02 1.0000000000e+02 0.0000e+00 0.0000e+00
   -10002  1    1    2    0    0 -4.7090861598e+01 -1.2280847423e+02 +7.7384313569e+01 1.8244945211e+02 1.0000000000e+02 0.0000e+00 0.0000e+00
<mgrwt>
<rscale>  0 0.50544610E+03</rscale>
<asrwt>0</asrwt>
<pdfrwt beam="1">  1        4 0.52424190E-01 0.50544610E+03</pdfrwt>
<pdfrwt beam="2">  1       -4 0.76144404E-01 0.50544610E+03</pdfrwt>
<totfact> 0.10551676E+01</totfact>
</mgrwt>
</event>
<event>
 6      1 +2.6141198e-09 4.26601700e+02 7.81860800e-03 1.03493900e-01
       -4 -1    0    0    0  501 -0.0000000000e+00 +0.0000000000e+00 +3.6855653773e+02 3.6855872586e+02 1.2700000000e+00 0.0000e+00 1.0000e+00
        4 -1    0    0  501    0 +0.0000000000e+00 -0.0000000000e+00 -1.2344130984e+02 1.2344784274e+02 1.2700000000e+00 0.0000e+00 1.0000e+00
      -13  1    1    2    0    0 -3.7370944930e+01 -1.4455026350e+01 +6.8882138482e+01 7.9688741223e+01 1.0566000000e-01 0.0000e+00 1.0000e+00
       13  1    1    2    0    0 -5.2989228941e+01 +6.0473173218e+01 +9.8487386505e+00 8.1005381795e+01 1.0566000000e-01 0.0000e+00 -1.0000e+00
    10002  1    1    2    0    0 +3.8354892826e+01 -3.2316628588e+01 +1.8505594000e+02 2.1624329635e+02 1.0000000000e+02 0.0000e+00 0.0000e+00
   -10002  1    1    2    0    0 +5.2005281045e+01 -1.3701518280e+01 -1.8671589239e+01 1.1506914923e+02 1.0000000000e+02 0.0000e+00 0.0000e+00
<mgrwt>
<rscale>  0 0.42660167E+03</rscale>
<asrwt>0</asrwt>
<pdfrwt beam="1">  1        4 0.30861418E-01 0.42660167E+03</pdfrwt>
<pdfrwt beam="2">  1       -4 0.92140224E-01 0.42660167E+03</pdfrwt>
<totfact> 0.19666653E+01</totfact>
</mgrwt>
</event>
<event>
 6      1 +2.6141198e-09 4.86317400e+02 7.81860800e-03 1.01741300e-01
       -4 -1    0    0    0  501 -0.0000000000e+00 +0.0000000000e+00 +4.2035843870e+02 4.2036035718e+02 1.2700000000e+00 0.0000e+00 1.0000e+00
        4 -1    0    0  501    0 +0.0000000000e+00 -0.0000000000e+00 -1.4065140692e+02 1.4065714048e+02 1.2700000000e+00 0.0000e+00 1.0000e+00
      -13  1    1    2    0    0 +1.0743776353e+01 +1.4409745543e+01 -3.1537147737e+01 3.6299756863e+01 1.0566000000e-01 0.0000e+00 -1.0000e+00
       13  1    1    2    0    0 -5.3877580446e+01 -5.0166502593e+01 +3.3482450230e+01 8.0873712012e+01 1.0566000000e-01 0.0000e+00 1.0000e+00
    10002  1    1    2    0    0 -6.3652829726e+01 +9.0895982758e+01 +3.2316576108e+01 1.5283364651e+02 1.0000000000e+02 0.0000e+00 0.0000e+00
   -10002  1    1    2    0    0 +1.0678663382e+02 -5.5139225708e+01 +2.4544515318e+02 2.9101038228e+02 1.0000000000e+02 0.0000e+00 0.0000e+00
<mgrwt>
<rscale>  0 0.48631740E+03</rscale>
<asrwt>0</asrwt>
<pdfrwt beam="1">  1        4 0.35163809E-01 0.48631740E+03</pdfrwt>
<pdfrwt beam="2">  1       -4 0.10509057E+00 0.48631740E+03</pdfrwt>
<totfact> 0.11246147E+01</totfact>
</mgrwt>
</event>
<event>
 6      1 +2.6141198e-09 5.03019900e+02 7.81860800e-03 1.01299400e-01
        4 -1    0    0  501    0 +0.0000000000e+00 +0.0000000000e+00 +1.2206887029e+02 1.2207547662e+02 1.2700000000e+00 0.0000e+00 1.0000e+00
       -4 -1    0    0    0  501 -0.0000000000e+00 -0.0000000000e+00 -5.1818818945e+02 5.1818974573e+02 1.2700000000e+00 0.0000e+00 1.0000e+00
      -13  1    1    2    0    0 +2.9686341546e+01 -6.0019318062e+01 -7.8835745224e+01 1.0343443964e+02 1.0566000000e-01 0.0000e+00 -1.0000e+00
       13  1    1    2    0    0 -3.7917381138e+01 +1.6903024121e+01 -4.9188646221e+01 6.4365938957e+01 1.0566000000e-01 0.0000e+00 1.0000e+00
    10002  1    1    2    0    0 +1.5971231198e+02 +7.6968472948e+01 -1.2501157310e+02 2.3887248027e+02 1.0000000000e+02 0.0000e+00 0.0000e+00
   -10002  1    1    2    0    0 -1.5148127238e+02 -3.3852179007e+01 -1.4308335462e+02 2.3359236348e+02 1.0000000000e+02 0.0000e+00 0.0000e+00
<mgrwt>
<rscale>  0 0.50301992E+03</rscale>
<asrwt>0</asrwt>
<pdfrwt beam="1">  1        4 0.30518239E-01 0.50301992E+03</pdfrwt>
<pdfrwt beam="2">  1       -4 0.12954806E+00 0.50301992E+03</pdfrwt>
<totfact> 0.88809282E+00</totfact>
</mgrwt>
</event>
<event>
 6      1 +2.6141198e-09 4.97065000e+02 7.81860800e-03 1.01454800e-01
        4 -1    0    0  501    0 +0.0000000000e+00 +0.0000000000e+00 +1.1095898390e+02 1.1096625167e+02 1.2700000000e+00 0.0000e+00 1.0000e+00
       -4 -1    0    0    0  501 -0.0000000000e+00 -0.0000000000e+00 -5.5665163908e+02 5.5665308783e+02 1.2700000000e+00 0.0000e+00 1.0000e+00
      -13  1    1    2    0    0 +2.2574696971e+01 +7.2341012738e+00 -7.6037444368e+01 7.9647054400e+01 1.0566000000e-01 0.0000e+00 -1.0000e+00
       13  1    1    2    0    0 -4.3864519717e+01 +5.0625620666e+01 -1.2124988062e+01 6.8074048340e+01 1.0566000000e-01 0.0000e+00 1.0000e+00
    10002  1    1    2    0    0 -6.5005299024e+01 -1.4810777733e+02 -9.5255722660e+01 2.1268581360e+02 1.0000000000e+02 0.0000e+00 0.0000e+00
   -10002  1    1    2    0    0 +8.6295121770e+01 +9.0248055395e+01 -2.6227450009e+02 3.0721242315e+02 1.0000000000e+02 0.0000e+00 0.0000e+00
<mgrwt>
<rscale>  0 0.49706503E+03</rscale>
<asrwt>0</asrwt>
<pdfrwt beam="1">  1        4 0.27740837E-01 0.49706503E+03</pdfrwt>
<pdfrwt beam="2">  1       -4 0.13916399E+00 0.49706503E+03</pdfrwt>
<totfact> 0.88882206E+00</totfact>
</mgrwt>
</event>
<event>
 6      1 +2.6141198e-09 6.16620000e+02 7.81860800e-03 9.87151200e-02
       -3 -1    0    0    0  501 -0.0000000000e+00 +0.0000000000e+00 +4.4225635108e+02 4.4225636261e+02 1.0100000000e-01 0.0000e+00 1.0000e+00
        3 -1    0    0  501    0 +0.0000000000e+00 -0.0000000000e+00 -2.1493204004e+02 2.1493206377e+02 1.0100000000e-01 0.0000e+00 1.0000e+00
      -13  1    1    2    0    0 -5.1356056171e+01 -8.0274268968e+00 -1.7951570880e+01 5.4992309908e+01 1.0566000000e-01 0.0000e+00 1.0000e+00
       13  1    1    2    0    0 +2.0895279477e+01 +4.3468065589e+01 +4.4770724873e+01 6.5806644043e+01 1.0566000000e-01 0.0000e+00 -1.0000e+00
    10002  1    1    2    0    0 +5.4547945888e+01 -2.3872905075e+02 +1.4599939941e+02 3.0213053917e+02 1.0000000000e+02 0.0000e+00 0.0000e+00
   -10002  1    1    2    0    0 -2.4087169195e+01 +2.0328841206e+02 +5.4505757635e+01 2.3425893326e+02 1.0000000000e+02 0.0000e+00 0.0000e+00
<mgrwt>
<rscale>  0 0.61662005E+03</rscale>
<asrwt>0</asrwt>
<pdfrwt beam="1">  1        3 0.53733015E-01 0.61662005E+03</pdfrwt>
<pdfrwt beam="2">  1       -3 0.11056409E+00 0.61662005E+03</pdfrwt>
<totfact> 0.61648236E+00</totfact>
</mgrwt>
</event>
<event>
 6      1 +2.6141198e-09 4.12295700e+02 7.81860800e-03 1.03960300e-01
       -4 -1    0    0    0  501 -0.0000000000e+00 +0.0000000000e+00 +1.1299664414e+02 1.1300378085e+02 1.2700000000e+00 0.0000e+00 1.0000e+00
        4 -1    0    0  501    0 +0.0000000000e+00 -0.0000000000e+00 -3.7607024710e+02 3.7607239151e+02 1.2700000000e+00 0.0000e+00 1.0000e+00
      -13  1    1    2    0    0 +2.8417153318e+00 +3.6160424367e+01 -5.7478509165e+01 6.7966475679e+01 1.0566000000e-01 0.0000e+00 1.0000e+00
       13  1    1    2    0    0 +1.6170978612e+01 -1.0749752660e+02 -1.0010658363e+02 1.4777874686e+02 1.0566000000e-01 0.0000e+00 -1.0000e+00
    10002  1    1    2    0    0 -5.4667571748e+01 +8.8325616952e+01 -5.2321566949e+01 1.5338678033e+02 1.0000000000e+02 0.0000e+00 0.0000e+00
   -10002  1    1    2    0    0 +3.5654877804e+01 -1.6988514723e+01 -5.3166943218e+01 1.1994416949e+02 1.0000000000e+02 0.0000e+00 0.0000e+00
<mgrwt>
<rscale>  0 0.41229575E+03</rscale>
<asrwt>0</asrwt>
<pdfrwt beam="1">  1        4 0.94018719E-01 0.41229575E+03</pdfrwt>
<pdfrwt beam="2">  1       -4 0.28250322E-01 0.41229575E+03</pdfrwt>
<totfact> 0.22196009E+01</totfact>
</mgrwt>
</event>
<event>
 6      1 +2.6141198e-09 5.50276700e+02 7.81860800e-03 1.00143000e-01
       -4 -1    0    0    0  501 -0.0000000000e+00 +0.0000000000e+00 +7.3777301287e+01 7.3788231346e+01 1.2700000000e+00 0.0000e+00 -1.0000e+00
        4 -1    0    0  501    0 +0.0000000000e+00 -0.0000000000e+00 -1.0259885741e+03 1.0259893602e+03 1.2700000000e+00 0.0000e+00 -1.0000e+00
      -13  1    1    2    0    0 +3.5915151263e+01 -4.0309208609e+01 -7.6199992261e+01 9.3387260231e+01 1.0566000000e-01 0.0000e+00 -1.0000e+00
       13  1    1    2    0    0 -9.2486629518e+00 +4.6207860981e+01 -2.1639616199e+02 2.2146786284e+02 1.0566000000e-01 0.0000e+00 1.0000e+00
    10002  1    1    2    0    0 -1.9261580724e+02 -2.7343266193e+01 -4.3931373475e+02 4.9075967738e+02 1.0000000000e+02 0.0000e+00 0.0000e+00
   -10002  1    1    2    0    0 +1.6594931893e+02 +2.1444613821e+01 -2.2030138385e+02 2.9416279105e+02 1.0000000000e+02 0.0000e+00 0.0000e+00
<mgrwt>
<rscale>  0 0.55027670E+03</rscale>
<asrwt>0</asrwt>
<pdfrwt beam="1">  1        4 0.25649856E+00 0.55027670E+03</pdfrwt>
<pdfrwt beam="2">  1       -4 0.18445793E-01 0.55027670E+03</pdfrwt>
<totfact> 0.31253768E+00</totfact>
</mgrwt>
</event>
<event>
 6      1 +2.6141198e-09 4.98742300e+02 7.81860800e-03 1.01410800e-01
       -4 -1    0    0    0  501 -0.0000000000e+00 +0.0000000000e+00 +2.7250582515e+02 2.7250878452e+02 1.2700000000e+00 0.0000e+00 1.0000e+00
        4 -1    0    0  501    0 +0.0000000000e+00 -0.0000000000e+00 -2.2819451372e+02 2.2819804774e+02 1.2700000000e+00 0.0000e+00 1.0000e+00
      -13  1    1    2    0    0 +2.4005574026e+01 -3.8691744256e+01 +4.6292469637e+01 6.4933216207e+01 1.0566000000e-01 0.0000e+00 -1.0000e+00
       13  1    1    2    0    0 -4.8719257640e+01 +2.7847139669e+01 +8.7402706051e+01 1.0386661370e+02 1.0566000000e-01 0.0000e+00 1.0000e+00
    10002  1    1    2    0    0 +1.1822228352e+02 +4.1633764214e+01 +8.8908607426e+00 1.6058930864e+02 1.0000000000e+02 0.0000e+00 0.0000e+00
   -10002  1    1    2    0    0 -9.3508599907e+01 -3.0789159627e+01 -9.8274724998e+01 1.7131769372e+02 1.0000000000e+02 0.0000e+00 0.0000e+00
<mgrwt>
<rscale>  0 0.49874226E+03</rscale>
<asrwt>0</asrwt>
<pdfrwt beam="1">  1        4 0.57049440E-01 0.49874226E+03</pdfrwt>
<pdfrwt beam="2">  1       -4 0.68127268E-01 0.49874226E+03</pdfrwt>
<totfact> 0.11291391E+01</totfact>
</mgrwt>
</event>
<event>
 6      1 +2.6141198e-09 6.83410800e+02 7.81860800e-03 9.74603000e-02
        4 -1    0    0  501    0 +0.0000000000e+00 +0.0000000000e+00 +6.7776942930e+02 6.7777061916e+02 1.2700000000e+00 0.0000e+00 1.0000e+00
       -4 -1    0    0    0  501 -0.0000000000e+00 -0.0000000000e+00 -1.7227109729e+02 1.7227577851e+02 1.2700000000e+00 0.0000e+00 1.0000e+00
      -13  1    1    2    0    0 +3.2685747655e+01 -1.0464788853e+01 +3.2832969782e+01 4.7496157468e+01 1.0566000000e-01 0.0000e+00 1.0000e+00
       13  1    1    2    0    0 -1.9852020816e+01 +6.1405439111e+01 -1.7694939134e+01 6.6916759619e+01 1.0566000000e-01 0.0000e+00 -1.0000e+00
    10002  1    1    2    0    0 +1.9251384977e+02 -1.7407161989e+02 +1.8094645333e+02 3.3181942405e+02 1.0000000000e+02 0.0000e+00 0.0000e+00
   -10002  1    1    2    0    0 -2.0534757661e+02 +1.2313096964e+02 +3.0941384803e+02 4.0381405653e+02 1.0000000000e+02 0.0000e+00 0.0000e+00
<mgrwt>
<rscale>  0 0.68341079E+03</rscale>
<asrwt>0</asrwt>
<pdfrwt beam="1">  1        4 0.16944309E+00 0.68341079E+03</pdfrwt>
<pdfrwt beam="2">  1       -4 0.43068508E-01 0.68341079E+03</pdfrwt>
<totfact> 0.22134027E+00</totfact>
</mgrwt>
</event>
<event>
 6      1 +2.6141198e-09 3.80208300e+02 7.81860800e-03 1.05085700e-01
       -4 -1    0    0    0  501 -0.0000000000e+00 +0.0000000000e+00 +1.8803027222e+02 1.8803456111e+02 1.2700000000e+00 0.0000e+00 -1.0000e+00
        4 -1    0    0  501    0 +0.0000000000e+00 -0.0000000000e+00 -1.9219230772e+02 1.9219650373e+02 1.2700000000e+00 0.0000e+00 -1.0000e+00
      -13  1    1    2    0    0 +4.9073100589e+01 +4.6127483808e+01 -1.1842594875e+01 6.8382542957e+01 1.0566000000e-01 0.0000e+00 -1.0000e+00
       13  1    1    2    0    0 +2.7813920273e+01 -3.4833882612e+01 +3.3138072068e+01 5.5544185323e+01 1.0566000000e-01 0.0000e+00 1.0000e+00
    10002  1    1    2    0    0 -1.0685981388e+02 -2.7981586820e+01 -8.6318515420e+00 1.4925313358e+02 1.0000000000e+02 0.0000e+00 0.0000e+00
   -10002  1    1    2    0    0 +2.9972793019e+01 +1.6687985624e+01 -1.6825661150e+01 1.0705120298e+02 1.0000000000e+02 0.0000e+00 0.0000e+00
<mgrwt>
<rscale>  0 0.38020829E+03</rscale>
<asrwt>0</asrwt>
<pdfrwt beam="1">  1        4 0.48049138E-01 0.38020829E+03</pdfrwt>
<pdfrwt beam="2">  1       -4 0.47008629E-01 0.38020829E+03</pdfrwt>
<totfact> 0.34991484E+01</totfact>
</mgrwt>
</event>
<event>
 6      1 +2.6141198e-09 4.19690500e+02 7.81860800e-03 1.03716700e-01
       -4 -1    0    0    0  501 -0.0000000000e+00 +0.0000000000e+00 +3.4322218912e+02 3.4322453876e+02 1.2700000000e+00 0.0000e+00 1.0000e+00
        4 -1    0    0  501    0 +0.0000000000e+00 -0.0000000000e+00 -1.2829299100e+02 1.2829927685e+02 1.2700000000e+00 0.0000e+00 1.0000e+00
      -13  1    1    2    0    0 -4.0892657786e+01 +2.6987694594e+01 +5.5628114055e+01 7.4128559662e+01 1.0566000000e-01 0.0000e+00 -1.0000e+00
       13  1    1    2    0    0 +2.3604355071e+01 +1.5901591770e+01 -2.7808232819e+01 3.9791144438e+01 1.0566000000e-01 0.0000e+00 1.0000e+00
    10002  1    1    2    0    0 +9.2662663808e+01 -5.6293751604e+01 +1.7823634389e+02 2.3135157233e+02 1.0000000000e+02 0.0000e+00 0.0000e+00
   -10002  1    1    2    0    0 -7.5374361093e+01 +1.3404465240e+01 +8.8729729908e+00 1.2625253918e+02 1.0000000000e+02 0.0000e+00 0.0000e+00
<mgrwt>
<rscale>  0 0.41969054E+03</rscale>
<asrwt>0</asrwt>
<pdfrwt beam="1">  1        4 0.32074327E-01 0.41969054E+03</pdfrwt>
<pdfrwt beam="2">  1       -4 0.85806626E-01 0.41969054E+03</pdfrwt>
<totfact> 0.21486515E+01</totfact>
</mgrwt>
</event>
<event>
 6      1 +2.6141198e-09 4.48459200e+02 7.81860800e-03 1.02818300e-01
        4 -1    0    0  501    0 +0.0000000000e+00 +0.0000000000e+00 +3.7506991914e+02 3.7507206926e+02 1.2700000000e+00 0.0000e+00 -1.0000e+00
       -4 -1    0    0    0  501 -0.0000000000e+00 -0.0000000000e+00 -1.3404653638e+02 1.3405255244e+02 1.2700000000e+00 0.0000e+00 -1.0000e+00
      -13  1    1    2    0    0 +1.6135394379e+01 +3.5214755939e+01 -2.8948758938e+01 4.8357748041e+01 1.0566000000e-01 0.0000e+00 1.0000e+00
       13  1    1    2    0    0 -2.6877475212e+01 +5.5823001547e+01 +6.7954201244e+01 9.1958636387e+01 1.0566000000e-01 0.0000e+00 -1.0000e+00
    10002  1    1    2    0    0 +8.3990385181e+00 +3.7454832932e+01 +1.7289658199e+02 2.0338789645e+02 1.0000000000e+02 0.0000e+00 0.0000e+00
   -10002  1    1    2    0    0 +2.3430423148e+00 -1.2849259042e+02 +2.9121358459e+01 1.6542034082e+02 1.0000000000e+02 0.0000e+00 0.0000e+00
<mgrwt>
<rscale>  0 0.44845915E+03</rscale>
<asrwt>0</asrwt>
<pdfrwt beam="1">  1        4 0.93768500E-01 0.44845915E+03</pdfrwt>
<pdfrwt beam="2">  1       -4 0.33512655E-01 0.44845915E+03</pdfrwt>
<totfact> 0.16127695E+01</totfact>
</mgrwt>
</event>
<event>
 6      1 +2.6141198e-09 6.51831800e+02 7.81860800e-03 9.80334800e-02
        4 -1    0    0  501    0 +0.0000000000e+00 +0.0000000000e+00 +2.7472228730e+02 2.7472522279e+02 1.2700000000e+00 0.0000e+00 1.0000e+00
       -4 -1    0    0    0  501 -0.0000000000e+00 -0.0000000000e+00 -3.8664319860e+02 3.8664528437e+02 1.2700000000e+00 0.0000e+00 1.0000e+00
      -13  1    1    2    0    0 +1.3489748903e+01 +4.1786611611e+00 -2.3132700326e+01 2.7102906172e+01 1.0566000000e-01 0.0000e+00 -1.0000e+00
       13  1    1    2    0    0 -7.8376399524e+01 -1.6058790567e+02 -8.1500705330e+01 1.9640191339e+02 1.0566000000e-01 0.0000e+00 1.0000e+00
    10002  1    1    2    0    0 -8.3839994855e+01 -2.3113140601e+01 -1.0185154718e+02 1.6714394895e+02 1.0000000000e+02 0.0000e+00 0.0000e+00
   -10002  1    1    2    0    0 +1.4872664548e+02 +1.7952238511e+02 +9.4564041535e+01 2.7072173866e+02 1.0000000000e+02 0.0000e+00 0.0000e+00
<mgrwt>
<rscale>  0 0.65183177E+03</rscale>
<asrwt>0</asrwt>
<pdfrwt beam="1">  1        4 0.68681200E-01 0.65183177E+03</pdfrwt>
<pdfrwt beam="2">  1       -4 0.96661427E-01 0.65183177E+03</pdfrwt>
<totfact> 0.34289333E+00</totfact>
</mgrwt>
</event>
<event>
 6      1 +2.6141198e-09 3.52282600e+02 7.81860800e-03 1.06168200e-01
       -4 -1    0    0    0  501 -0.0000000000e+00 +0.0000000000e+00 +1.2027620709e+02 1.2028291188e+02 1.2700000000e+00 0.0000e+00 -1.0000e+00
        4 -1    0    0  501    0 +0.0000000000e+00 -0.0000000000e+00 -2.5793877427e+02 2.5794190077e+02 1.2700000000e+00 0.0000e+00 -1.0000e+00
      -13  1    1    2    0    0 +1.7247747648e+01 +2.8678694309e+01 -6.3895352461e+01 7.2128909158e+01 1.0566000000e-01 0.0000e+00 1.0000e+00
       13  1    1    2    0    0 +3.3547200272e+01 -3.3100324846e+01 -3.1280881142e+01 5.6564572305e+01 1.0566000000e-01 0.0000e+00 -1.0000e+00
    10002  1    1    2    0    0 -7.9895581409e+01 -9.2105928300e+00 -6.2285324082e+01 1.4264501584e+02 1.0000000000e+02 0.0000e+00 0.0000e+00
   -10002  1    1    2    0    0 +2.9100633489e+01 +1.3632223368e+01 +1.9798990500e+01 1.0688631535e+02 1.0000000000e+02 0.0000e+00 0.0000e+00
<mgrwt>
<rscale>  0 0.35228259E+03</rscale>
<asrwt>0</asrwt>
<pdfrwt beam="1">  1        4 0.64485922E-01 0.35228259E+03</pdfrwt>
<pdfrwt beam="2">  1       -4 0.30070281E-01 0.35228259E+03</pdfrwt>
<totfact> 0.45371474E+01</totfact>
</mgrwt>
</event>
<event>
 6      1 +2.6141198e-09 4.07953900e+02 7.81860800e-03 1.04106000e-01
       -4 -1    0    0    0  501 -0.0000000000e+00 +0.0000000000e+00 +3.0040769424e+02 3.0041037875e+02 1.2700000000e+00 0.0000e+00 1.0000e+00
        4 -1    0    0  501    0 +0.0000000000e+00 -0.0000000000e+00 -1.3849419339e+02 1.3850001625e+02 1.2700000000e+00 0.0000e+00 1.0000e+00
      -13  1    1    2    0    0 +1.4806189179e+01 +1.8660753140e-01 -1.1137430783e+01 1.8528669377e+01 1.0566000000e-01 0.0000e+00 1.0000e+00
       13  1    1    2    0    0 -7.6766668241e+01 +8.6513474297e+00 +8.7852486734e+01 1.1698734015e+02 1.0566000000e-01 0.0000e+00 -1.0000e+00
    10002  1    1    2    0    0 -6.9926853053e+01 -2.5819324619e+01 +4.0022779451e+01 1.3098940864e+02 1.0000000000e+02 0.0000e+00 0.0000e+00
   -10002  1    1    2    0    0 +1.3188733212e+02 +1.6981369658e+01 +4.5175665452e+01 1.7240497683e+02 1.0000000000e+02 0.0000e+00 0.0000e+00
<mgrwt>
<rscale>  0 0.40795386E+03</rscale>
<asrwt>0</asrwt>
<pdfrwt beam="1">  1        4 0.34624612E-01 0.40795386E+03</pdfrwt>
<pdfrwt beam="2">  1       -4 0.75102987E-01 0.40795386E+03</pdfrwt>
<totfact> 0.24959042E+01</totfact>
</mgrwt>
</event>
<event>
 6      1 +2.6141198e-09 3.55163800e+02 7.81860800e-03 1.06051500e-01
       -4 -1    0    0    0  501 -0.0000000000e+00 +0.0000000000e+00 +8.7544845440e+01 8.7554056805e+01 1.2700000000e+00 0.0000e+00 1.0000e+00
        4 -1    0    0  501    0 +0.0000000000e+00 -0.0000000000e+00 -3.6018985065e+02 3.6019208961e+02 1.2700000000e+00 0.0000e+00 1.0000e+00
      -13  1    1    2    0    0 -4.4010021155e+00 +4.1350359913e+01 -1.0530616896e+02 1.1321935112e+02 1.0566000000e-01 0.0000e+00 1.0000e+00
       13  1    1    2    0    0 -4.3050851318e-01 -2.3662374561e+01 -2.2311451927e+00 2.3771463572e+01 1.0566000000e-01 0.0000e+00 -1.0000e+00
    10002  1    1    2    0    0 -7.5065185529e+01 -3.3353725631e+01 -1.1253460164e+02 1.7149720015e+02 1.0000000000e+02 0.0000e+00 0.0000e+00
   -10002  1    1    2    0    0 +7.9896696158e+01 +1.5665740279e+01 -5.2573089419e+01 1.3925813156e+02 1.0000000000e+02 0.0000e+00 0.0000e+00
<mgrwt>
<rscale>  0 0.35516378E+03</rscale>
<asrwt>0</asrwt>
<pdfrwt beam="1">  1        4 0.90048890E-01 0.35516378E+03</pdfrwt>
<pdfrwt beam="2">  1       -4 0.21887644E-01 0.35516378E+03</pdfrwt>
<totfact> 0.39193317E+01</totfact>
</mgrwt>
</event>
<event>
 6      1 +2.6141198e-09 4.27626800e+02 7.81860800e-03 1.03461200e-01
        4 -1    0    0  501    0 +0.0000000000e+00 +0.0000000000e+00 +1.8947748290e+02 1.8948173903e+02 1.2700000000e+00 0.0000e+00 -1.0000e+00
       -4 -1    0    0    0  501 -0.0000000000e+00 -0.0000000000e+00 -2.4126628180e+02 2.4126962435e+02 1.2700000000e+00 0.0000e+00 -1.0000e+00
      -13  1    1    2    0    0 +2.1270495815e+01 +6.0923803074e+01 +3.9776233930e+00 6.4652737182e+01 1.0566000000e-01 0.0000e+00 -1.0000e+00
       13  1    1    2    0    0 +2.8491222562e+01 -2.2200477088e+01 +1.6822992192e+01 3.9845139934e+01 1.0566000000e-01 0.0000e+00 1.0000e+00
    10002  1    1    2    0    0 +3.6535253993e+01 +3.7769830262e+00 -1.3677693313e+02 1.7336960466e+02 1.0000000000e+02 0.0000e+00 0.0000e+00
   -10002  1    1    2    0    0 -8.6296972370e+01 -4.2500309012e+01 +6.4187518637e+01 1.5288388161e+02 1.0000000000e+02 0.0000e+00 0.0000e+00
<mgrwt>
<rscale>  0 0.42762677E+03</rscale>
<asrwt>0</asrwt>
<pdfrwt beam="1">  1        4 0.47370321E-01 0.42762677E+03</pdfrwt>
<pdfrwt beam="2">  1       -4 0.60317520E-01 0.42762677E+03</pdfrwt>
<totfact> 0.21530881E+01</totfact>
</mgrwt>
</event>
<event>
 6      1 +2.6141198e-09 5.53959800e+02 7.81860800e-03 1.00058200e-01
       -4 -1    0    0    0  501 -0.0000000000e+00 +0.0000000000e+00 +2.7952871671e+02 2.7953160173e+02 1.2700000000e+00 0.0000e+00 -1.0000e+00
        4 -1    0    0  501    0 +0.0000000000e+00 -0.0000000000e+00 -2.7444856923e+02 2.7445150765e+02 1.2700000000e+00 0.0000e+00 -1.0000e+00
      -13  1    1    2    0    0 -2.4960793146e+01 -1.3971103010e+01 -2.8072502597e+00 2.8742385632e+01 1.0566000000e-01 0.0000e+00 1.0000e+00
       13  1    1    2    0    0 +6.5465535095e+01 -3.5724367982e+01 -8.5870507196e+01 1.1373531520e+02 1.0566000000e-01 0.0000e+00 -1.0000e+00
    10002  1    1    2    0    0 +4.1474342236e+01 +1.5485472503e+02 -4.5464269082e+01 1.9433761008e+02 1.0000000000e+02 0.0000e+00 0.0000e+00
   -10002  1    1    2    0    0 -8.1979084185e+01 -1.0515925404e+02 +1.3922217402e+02 2.1716779847e+02 1.0000000000e+02 0.0000e+00 0.0000e+00
<mgrwt>
<rscale>  0 0.55395982E+03</rscale>
<asrwt>0</asrwt>
<pdfrwt beam="1">  1        4 0.68612870E-01 0.55395982E+03</pdfrwt>
<pdfrwt beam="2">  1       -4 0.69882907E-01 0.55395982E+03</pdfrwt>
<totfact> 0.71853457E+00</totfact>
</mgrwt>
</event>
<event>
 6      1 +2.6141198e-09 4.76306300e+02 7.81860800e-03 1.02015500e-01
       -4 -1    0    0    0  501 -0.0000000000e+00 +0.0000000000e+00 +4.9255247401e+02 4.9255411129e+02 1.2700000000e+00 0.0000e+00 -1.0000e+00
        4 -1    0    0  501    0 +0.0000000000e+00 -0.0000000000e+00 -1.1514364625e+02 1.1515064990e+02 1.2700000000e+00 0.0000e+00 -1.0000e+00
      -13  1    1    2    0    0 +4.2173500594e+01 -1.9437570634e+01 +1.0497807223e+02 1.1479037467e+02 1.0566000000e-01 0.0000e+00 -1.0000e+00
       13  1    1    2    0    0 -5.1621447668e+01 -5.9136864377e+01 +5.9377686969e+01 9.8425928807e+01 1.0566000000e-01 0.0000e+00 1.0000e+00
    10002  1    1    2    0    0 +1.7595156849e+01 +1.9078487033e+01 +2.5131994038e+02 2.7172649971e+02 1.0000000000e+02 0.0000e+00 0.0000e+00
   -10002  1    1    2    0    0 -8.1472097748e+00 +5.9495947979e+01 -3.8266871825e+01 1.2276195800e+02 1.0000000000e+02 0.0000e+00 0.0000e+00
<mgrwt>
<rscale>  0 0.47630626E+03</rscale>
<asrwt>0</asrwt>
<pdfrwt beam="1">  1        4 0.28786992E-01 0.47630626E+03</pdfrwt>
<pdfrwt beam="2">  1       -4 0.12313920E+00 0.47630626E+03</pdfrwt>
<totfact> 0.11263951E+01</totfact>
</mgrwt>
</event>
<event>
 6      1 +2.6141198e-09 3.47126700e+02 7.81860800e-03 1.06380100e-01
        4 -1    0    0  501    0 +0.0000000000e+00 +0.0000000000e+00 +1.1752775303e+03 1.1752782165e+03 1.2700000000e+00 0.0000e+00 -1.0000e+00
       -4 -1    0    0    0  501 -0.0000000000e+00 -0.0000000000e+00 -2.5615168785e+01 2.5646632759e+01 1.2700000000e+00 0.0000e+00 -1.0000e+00
      -13  1    1    2    0    0 -7.2029569850e+00 -6.7539698722e+01 +1.5055608245e+02 1.6516851582e+02 1.0566000000e-01 0.0000e+00 -1.0000e+00
       13  1    1    2    0    0 +4.5162203928e+01 +2.3179109620e+01 +1.8024355143e+02 1.8725556009e+02 1.0566000000e-01 0.0000e+00 1.0000e+00
    10002  1    1    2    0    0 +8.3381431786e+00 +1.6915941631e+01 +4.9366256417e+02 5.0404206271e+02 1.0000000000e+02 0.0000e+00 0.0000e+00
   -10002  1    1    2    0    0 -4.6297390121e+01 +2.7444647471e+01 +3.2520016346e+02 3.4445871062e+02 1.0000000000e+02 0.0000e+00 0.0000e+00
<mgrwt>
<rscale>  0 0.34712670E+03</rscale>
<asrwt>0</asrwt>
<pdfrwt beam="1">  1        4 0.29382339E+00 0.34712670E+03</pdfrwt>
<pdfrwt beam="2">  1       -4 0.64078112E-02 0.34712670E+03</pdfrwt>
<totfact> 0.11639519E+01</totfact>
</mgrwt>
</event>
<event>
 6      1 +2.6141198e-09 3.34116200e+02 7.81860800e-03 1.06933000e-01
        4 -1    0    0  501    0 +0.0000000000e+00 +0.0000000000e+00 +7.9096779743e+02 7.9096881701e+02 1.2700000000e+00 0.0000e+00 1.0000e+00
       -4 -1    0    0    0  501 -0.0000000000e+00 -0.0000000000e+00 -3.5271412776e+01 3.5294269495e+01 1.2700000000e+00 0.0000e+00 1.0000e+00
      -13  1    1    2    0    0 +2.3076900840e+01 -4.0666323192e+01 +1.5219919202e+02 1.5921965460e+02 1.0566000000e-01 0.0000e+00 1.0000e+00
       13  1    1    2    0    0 -1.6937028010e+01 +4.6498971596e+01 +2.5698552807e+02 2.6170706922e+02 1.0566000000e-01 0.0000e+00 -1.0000e+00
    10002  1    1    2    0    0 -2.5684914141e+01 -2.0700270113e+01 +1.4705981129e+02 1.8087234198e+02 1.0000000000e+02 0.0000e+00 0.0000e+00
   -10002  1    1    2    0    0 +1.9545041310e+01 +1.4867621709e+01 +1.9945185327e+02 2.2446402070e+02 1.0000000000e+02 0.0000e+00 0.0000e+00
<mgrwt>
<rscale>  0 0.33411624E+03</rscale>
<asrwt>0</asrwt>
<pdfrwt beam="1">  1        4 0.19774493E+00 0.33411624E+03</pdfrwt>
<pdfrwt beam="2">  1       -4 0.88208378E-02 0.33411624E+03</pdfrwt>
<totfact> 0.26004330E+01</totfact>
</mgrwt>
</event>
<event>
 6      1 +2.6141198e-09 6.54446200e+02 7.81860800e-03 9.79847200e-02
       -4 -1    0    0    0  501 -0.0000000000e+00 +0.0000000000e+00 +1.8381695677e+02 1.8382134396e+02 1.2700000000e+00 0.0000e+00 1.0000e+00
        4 -1    0    0  501    0 +0.0000000000e+00 -0.0000000000e+00 -5.8249649482e+02 5.8249787929e+02 1.2700000000e+00 0.0000e+00 1.0000e+00
      -13  1    1    2    0    0 -1.1519608206e+01 +9.7989424818e+00 +1.8747376068e+01 2.4087256391e+01 1.0566000000e-01 0.0000e+00 -1.0000e+00
       13  1    1    2    0    0 -1.6692319547e+01 +1.8021001499e+02 -1.1328146338e+02 2.1351108669e+02 1.0566000000e-01 0.0000e+00 1.0000e+00
    10002  1    1    2    0    0 +7.4189135556e+01 +6.2018752303e+01 -3.3956323566e+01 1.4319003241e+02 1.0000000000e+02 0.0000e+00 0.0000e+00
   -10002  1    1    2    0    0 -4.5977207803e+01 -2.5202770977e+02 -2.7018912718e+02 3.8553084776e+02 1.0000000000e+02 0.0000e+00 0.0000e+00
<mgrwt>
<rscale>  0 0.65444616E+03</rscale>
<asrwt>0</asrwt>
<pdfrwt beam="1">  1        4 0.14562484E+00 0.65444616E+03</pdfrwt>
<pdfrwt beam="2">  1       -4 0.45954962E-01 0.65444616E+03</pdfrwt>
<totfact> 0.29168287E+00</totfact>
</mgrwt>
</event>
<event>
 6      1 +2.6141198e-09 3.36051400e+02 7.81860800e-03 1.06849000e-01
       -4 -1    0    0    0  501 -0.0000000000e+00 +0.0000000000e+00 +7.9058704673e+01 7.9068904663e+01 1.2700000000e+00 0.0000e+00 1.0000e+00
        4 -1    0    0  501    0 +0.0000000000e+00 -0.0000000000e+00 -3.5707549193e+02 3.5707775041e+02 1.2700000000e+00 0.0000e+00 1.0000e+00
      -13  1    1    2    0    0 +1.4461798348e+01 -4.0770807276e+01 -4.6671311614e+01 6.3636662618e+01 1.0566000000e-01 0.0000e+00 1.0000e+00
       13  1    1    2    0    0 +6.3629759365e+00 +5.0779314641e+01 -4.6527923956e+01 6.9165635469e+01 1.0566000000e-01 0.0000e+00 -1.0000e+00
    10002  1    1    2    0    0 +7.7409709165e+00 -2.1975660161e+00 -1.7084022163e+02 1.9811898761e+02 1.0000000000e+02 0.0000e+00 0.0000e+00
   -10002  1    1    2    0    0 -2.8565745201e+01 -7.8109413485e+00 -1.3977330058e+01 1.0522536937e+02 1.0000000000e+02 0.0000e+00 0.0000e+00
<mgrwt>
<rscale>  0 0.33605144E+03</rscale>
<asrwt>0</asrwt>
<pdfrwt beam="1">  1        4 0.89270426E-01 0.33605144E+03</pdfrwt>
<pdfrwt beam="2">  1       -4 0.19766234E-01 0.33605144E+03</pdfrwt>
<totfact> 0.47999012E+01</totfact>
</mgrwt>
</event>
<event>
 6      1 +2.6141198e-09 4.12691800e+02 7.81860800e-03 1.03947100e-01
        4 -1    0    0  501    0 +0.0000000000e+00 +0.0000000000e+00 +4.3598974095e+02 4.3599159065e+02 1.2700000000e+00 0.0000e+00 -1.0000e+00
       -4 -1    0    0    0  501 -0.0000000000e+00 -0.0000000000e+00 -9.7653521891e+01 9.7661779821e+01 1.2700000000e+00 0.0000e+00 -1.0000e+00
      -13  1    1    2    0    0 -8.7202756042e+01 +3.5254512811e+01 +9.2473385585e+01 1.3190352361e+02 1.0566000000e-01 0.0000e+00 1.0000e+00
       13  1    1    2    0    0 +1.1170449246e+01 -4.4425303118e+01 +6.2121590946e+01 7.7184776473e+01 1.0566000000e-01 0.0000e+00 -1.0000e+00
    10002  1    1    2    0    0 +5.0120813558e+01 +8.3648555038e+01 +1.0620553974e+02 1.7546735703e+02 1.0000000000e+02 0.0000e+00 0.0000e+00
   -10002  1    1    2    0    0 +2.5911493238e+01 -7.4477764731e+01 +7.7535702790e+01 1.4909771336e+02 1.0000000000e+02 0.0000e+00 0.0000e+00
<mgrwt>
<rscale>  0 0.41269180E+03</rscale>
<asrwt>0</asrwt>
<pdfrwt beam="1">  1        4 0.10899870E+00 0.41269180E+03</pdfrwt>
<pdfrwt beam="2">  1       -4 0.24414644E-01 0.41269180E+03</pdfrwt>
<totfact> 0.20599807E+01</totfact>
</mgrwt>
</event>
<event>
 6      1 +2.6141198e-09 4.20830200e+02 7.81860800e-03 1.03679600e-01
        4 -1    0    0  501    0 +0.0000000000e+00 +0.0000000000e+00 +2.7334452151e+02 2.7334747180e+02 1.2700000000e+00 0.0000e+00 -1.0000e+00
       -4 -1    0    0    0  501 -0.0000000000e+00 -0.0000000000e+00 -1.6196695492e+02 1.6197193395e+02 1.2700000000e+00 0.0000e+00 -1.0000e+00
      -13  1    1    2    0    0 -6.4161613115e+01 +1.3545439428e+01 +4.5261533350e+01 7.9679414481e+01 1.0566000000e-01 0.0000e+00 -1.0000e+00
       13  1    1    2    0    0 -3.0382183908e+00 +9.8943703038e+00 -3.8282522852e+01 3.9657181628e+01 1.0566000000e-01 0.0000e+00 1.0000e+00
    10002  1    1    2    0    0 +1.1001665620e+02 +6.0272515484e+01 +4.6685718556e+01 1.6708081003e+02 1.0000000000e+02 0.0000e+00 0.0000e+00
   -10002  1    1    2    0    0 -4.2816824692e+01 -8.3712325216e+01 +5.7712837537e+01 1.4890199961e+02 1.0000000000e+02 0.0000e+00 0.0000e+00
<mgrwt>
<rscale>  0 0.42083016E+03</rscale>
<asrwt>0</asrwt>
<pdfrwt beam="1">  1        4 0.68337121E-01 0.42083016E+03</pdfrwt>
<pdfrwt beam="2">  1       -4 0.40492730E-01 0.42083016E+03</pdfrwt>
<totfact> 0.22578304E+01</totfact>
</mgrwt>
</event>
<event>
 6      1 +2.6141198e-09 4.37927500e+02 7.81860800e-03 1.03138500e-01
        4 -1    0    0  501    0 +0.0000000000e+00 +0.0000000000e+00 +8.5570847597e+01 8.5580271433e+01 1.2700000000e+00 0.0000e+00 -1.0000e+00
       -4 -1    0    0    0  501 -0.0000000000e+00 -0.0000000000e+00 -5.6025644891e+02 5.6025788834e+02 1.2700000000e+00 0.0000e+00 -1.0000e+00
      -13  1    1    2    0    0 -6.6019057715e+00 -8.2178718471e+01 -1.7989074778e+02 1.9788284218e+02 1.0566000000e-01 0.0000e+00 1.0000e+00
       13  1    1    2    0    0 -4.6713524844e+00 +2.9363898282e+01 -6.5404199017e+01 7.1845532007e+01 1.0566000000e-01 0.0000e+00 -1.0000e+00
    10002  1    1    2    0    0 +6.0903699800e+01 +1.4671496724e+01 -2.2958437832e+02 2.5813465523e+02 1.0000000000e+02 0.0000e+00 0.0000e+00
   -10002  1    1    2    0    0 -4.9630441544e+01 +3.8143323465e+01 +1.9372379583e-01 1.1797513035e+02 1.0000000000e+02 0.0000e+00 0.0000e+00
<mgrwt>
<rscale>  0 0.43792752E+03</rscale>
<asrwt>0</asrwt>
<pdfrwt beam="1">  1        4 0.21394071E-01 0.43792752E+03</pdfrwt>
<pdfrwt beam="2">  1       -4 0.14006546E+00 0.43792752E+03</pdfrwt>
<totfact> 0.14167753E+01</totfact>
</mgrwt>
</event>
<event>
 6      1 +2.6141198e-09 3.42746900e+02 7.81860800e-03 1.06563200e-01
       -4 -1    0    0    0  501 -0.0000000000e+00 +0.0000000000e+00 +4.7131503473e+02 4.7131674579e+02 1.2700000000e+00 0.0000e+00 1.0000e+00
        4 -1    0    0  501    0 +0.0000000000e+00 -0.0000000000e+00 -6.2304285954e+01 6.2317228342e+01 1.2700000000e+00 0.0000e+00 1.0000e+00
      -13  1    1    2    0    0 -4.8618350706e+00 -1.1992026730e+01 +3.1029027978e-01 1.2944249280e+01 1.0566000000e-01 0.0000e+00 1.0000e+00
       13  1    1    2    0    0 -2.9336024265e+00 -2.8257176010e+01 +1.1298256884e+02 1.1649955384e+02 1.0566000000e-01 0.0000e+00 -1.0000e+00
    10002  1    1    2    0    0 +8.3385983399e+01 -2.6711155439e+01 +1.5512248928e+02 2.0427847349e+02 1.0000000000e+02 0.0000e+00 0.0000e+00
   -10002  1    1    2    0    0 -7.5590545902e+01 +6.6960358179e+01 +1.4059540037e+02 1.9991169751e+02 1.0000000000e+02 0.0000e+00 0.0000e+00
<mgrwt>
<rscale>  0 0.34274688E+03</rscale>
<asrwt>0</asrwt>
<pdfrwt beam="1">  1        4 0.15577903E-01 0.34274688E+03</pdfrwt>
<pdfrwt beam="2">  1       -4 0.11783059E+00 0.34274688E+03</pdfrwt>
<totfact> 0.38258774E+01</totfact>
</mgrwt>
</event>
<event>
 6      1 +2.6141198e-09 7.36687200e+02 7.81860800e-03 9.65647100e-02
        4 -1    0    0  501    0 +0.0000000000e+00 +0.0000000000e+00 +3.7194646645e+02 3.7194863463e+02 1.2700000000e+00 0.0000e+00 -1.0000e+00
       -4 -1    0    0    0  501 -0.0000000000e+00 -0.0000000000e+00 -3.6477130339e+02 3.6477351422e+02 1.2700000000e+00 0.0000e+00 -1.0000e+00
      -13  1    1    2    0    0 +1.6329663765e+01 -5.9526805071e+00 +3.0538288029e+01 3.5138163351e+01 1.0566000000e-01 0.0000e+00 1.0000e+00
       13  1    1    2    0    0 +9.4835592350e+01 -7.7926255964e+01 -6.4316888344e+01 1.3857476046e+02 1.0566000000e-01 0.0000e+00 -1.0000e+00
    10002  1    1    2    0    0 -1.6927286590e+01 +2.9315858319e+02 +3.8958737806e+01 3.1264400071e+02 1.0000000000e+02 0.0000e+00 0.0000e+00
   -10002  1    1    2    0    0 -9.4237969525e+01 -2.0927964672e+02 +1.9950255615e+00 2.5036522434e+02 1.0000000000e+02 0.0000e+00 0.0000e+00
<mgrwt>
<rscale>  0 0.73668721E+03</rscale>
<asrwt>0</asrwt>
<pdfrwt beam="1">  1        4 0.92987164E-01 0.73668721E+03</pdfrwt>
<pdfrwt beam="2">  1       -4 0.91193373E-01 0.73668721E+03</pdfrwt>
<totfact> 0.19738474E+00</totfact>
</mgrwt>
</event>
<event>
 6      1 +2.6141198e-09 4.60278700e+02 7.81860800e-03 1.02470000e-01
       -4 -1    0    0    0  501 -0.0000000000e+00 +0.0000000000e+00 +5.3169543183e+02 5.3169694858e+02 1.2700000000e+00 0.0000e+00 -1.0000e+00
        4 -1    0    0  501    0 +0.0000000000e+00 -0.0000000000e+00 -9.9607945969e+01 9.9616041882e+01 1.2700000000e+00 0.0000e+00 -1.0000e+00
      -13  1    1    2    0    0 -1.3022679122e+02 +4.6012426011e+01 +1.0119442446e+02 1.7122056887e+02 1.0566000000e-01 0.0000e+00 -1.0000e+00
       13  1    1    2    0    0 +1.2192676496e+01 -1.0683878327e+01 +4.0070287850e+01 4.3225521959e+01 1.0566000000e-01 0.0000e+00 1.0000e+00
    10002  1    1    2    0    0 +2.9212580945e+01 +7.2149743181e+01 +1.1352979594e+02 1.7014104412e+02 1.0000000000e+02 0.0000e+00 0.0000e+00
   -10002  1    1    2    0    0 +8.8821533779e+01 -1.0747829086e+02 +1.7729297760e+02 2.4672585551e+02 1.0000000000e+02 0.0000e+00 0.0000e+00
<mgrwt>
<rscale>  0 0.46027872E+03</rscale>
<asrwt>0</asrwt>
<pdfrwt beam="1">  1        4 0.24903189E-01 0.46027872E+03</pdfrwt>
<pdfrwt beam="2">  1       -4 0.13292506E+00 0.46027872E+03</pdfrwt>
<totfact> 0.12225068E+01</totfact>
</mgrwt>
</event>
<event>
 6      1 +2.6141198e-09 4.16795900e+02 7.81860800e-03 1.03811400e-01
       -3 -1    0    0    0  501 -0.0000000000e+00 +0.0000000000e+00 +2.2490714310e+02 2.2490716578e+02 1.0100000000e-01 0.0000e+00 1.0000e+00
        3 -1    0    0  501    0 +0.0000000000e+00 -0.0000000000e+00 -1.9310058469e+02 1.9310061110e+02 1.0100000000e-01 0.0000e+00 1.0000e+00
      -13  1    1    2    0    0 -5.1002132040e+01 -6.0684171530e+01 +4.1924471047e+01 8.9674180139e+01 1.0566000000e-01 0.0000e+00 -1.0000e+00
       13  1    1    2    0    0 +3.4195137574e-01 +3.8487785284e+01 +8.5012427525e+00 3.9417113532e+01 1.0566000000e-01 0.0000e+00 1.0000e+00
    10002  1    1    2    0    0 -5.4363775283e+01 +1.5722891915e+01 +5.3591472037e+01 1.2678594271e+02 1.0000000000e+02 0.0000e+00 0.0000e+00
   -10002  1    1    2    0    0 +1.0502395595e+02 +6.4734943302e+00 -7.2210627421e+01 1.6213054050e+02 1.0000000000e+02 0.0000e+00 0.0000e+00
<mgrwt>
<rscale>  0 0.41679593E+03</rscale>
<asrwt>0</asrwt>
<pdfrwt beam="1">  1        3 0.48275153E-01 0.41679593E+03</pdfrwt>
<pdfrwt beam="2">  1       -3 0.56226792E-01 0.41679593E+03</pdfrwt>
<totfact> 0.34316973E+01</totfact>
</mgrwt>
</event>
<event>
 6      1 +2.6141198e-09 4.29695800e+02 7.81860800e-03 1.03395600e-01
       -4 -1    0    0    0  501 -0.0000000000e+00 +0.0000000000e+00 +2.0759763506e+02 2.0760151970e+02 1.2700000000e+00 0.0000e+00 1.0000e+00
        4 -1    0    0  501    0 +0.0000000000e+00 -0.0000000000e+00 -2.2234361167e+02 2.2234723868e+02 1.2700000000e+00 0.0000e+00 1.0000e+00
      -13  1    1    2    0    0 -6.5070465043e+01 -1.2970878659e+01 +6.8902024317e+01 9.5655157901e+01 1.0566000000e-01 0.0000e+00 1.0000e+00
       13  1    1    2    0    0 +1.4175811796e+01 -4.6954850549e+01 +8.3714073985e+00 4.9757444227e+01 1.0566000000e-01 0.0000e+00 -1.0000e+00
    10002  1    1    2    0    0 -3.0153865304e+01 -2.0383640039e+01 -7.8456871724e+01 1.3221281744e+02 1.0000000000e+02 0.0000e+00 0.0000e+00
   -10002  1    1    2    0    0 +8.1048518551e+01 +8.0309369247e+01 -1.3562536602e+01 1.5232333881e+02 1.0000000000e+02 0.0000e+00 0.0000e+00
<mgrwt>
<rscale>  0 0.42969581E+03</rscale>
<asrwt>0</asrwt>
<pdfrwt beam="1">  1        4 0.55586842E-01 0.42969581E+03</pdfrwt>
<pdfrwt beam="2">  1       -4 0.51900348E-01 0.42969581E+03</pdfrwt>
<totfact> 0.21204378E+01</totfact>
</mgrwt>
</event>
<event>
 6      1 +2.6141198e-09 4.68997200e+02 7.81860800e-03 1.02220400e-01
        4 -1    0    0  501    0 +0.0000000000e+00 +0.0000000000e+00 +9.1677330017e+01 9.1686126209e+01 1.2700000000e+00 0.0000e+00 1.0000e+00
       -4 -1    0    0    0  501 -0.0000000000e+00 -0.0000000000e+00 -5.9977856694e+02 5.9977991152e+02 1.2700000000e+00 0.0000e+00 1.0000e+00
      -13  1    1    2    0    0 -8.3589751283e+01 +2.6554339523e+01 -9.9430161699e+01 1.3258486975e+02 1.0566000000e-01 0.0000e+00 1.0000e+00
       13  1    1    2    0    0 +1.1785530248e+01 -1.9353233012e+01 +5.7390449702e+00 2.3375075453e+01 1.0566000000e-01 0.0000e+00 -1.0000e+00
    10002  1    1    2    0    0 +6.2881537778e+01 -1.2942976977e+02 -1.6839466576e+02 2.4302863320e+02 1.0000000000e+02 0.0000e+00 0.0000e+00
   -10002  1    1    2    0    0 +8.9226832570e+00 +1.2222866325e+02 -2.4601545443e+02 2.9247745933e+02 1.0000000000e+02 0.0000e+00 0.0000e+00
<mgrwt>
<rscale>  0 0.46899724E+03</rscale>
<asrwt>0</asrwt>
<pdfrwt beam="1">  1        4 0.22920602E-01 0.46899724E+03</pdfrwt>
<pdfrwt beam="2">  1       -4 0.14994590E+00 0.46899724E+03</pdfrwt>
<totfact> 0.10468601E+01</totfact>
</mgrwt>
</event>
<event>
 6      1 +2.6141198e-09 4.61191600e+02 7.81860800e-03 1.02443600e-01
        4 -1    0    0  501    0 +0.0000000000e+00 +0.0000000000e+00 +7.4745524472e+01 7.4756312969e+01 1.2700000000e+00 0.0000e+00 1.0000e+00
       -4 -1    0    0    0  501 -0.0000000000e+00 -0.0000000000e+00 -7.1134351579e+02 7.1134464948e+02 1.2700000000e+00 0.0000e+00 1.0000e+00
      -13  1    1    2    0    0 -2.7882753491e+01 +4.7986601859e+01 -1.8378575833e+02 1.9198275451e+02 1.0566000000e-01 0.0000e+00 -1.0000e+00
       13  1    1    2    0    0 -1.6300397251e+00 -2.9109189581e+01 -1.7843212767e+01 3.4181769314e+01 1.0566000000e-01 0.0000e+00 1.0000e+00
    10002  1    1    2    0    0 +7.8985849258e+01 -1.7917419411e+01 -4.2935232435e+02 4.4822228495e+02 1.0000000000e+02 0.0000e+00 0.0000e+00
   -10002  1    1    2    0    0 -4.9473056042e+01 -9.5999286695e-01 -5.6166958691e+00 1.1171415368e+02 1.0000000000e+02 0.0000e+00 0.0000e+00
<mgrwt>
<rscale>  0 0.46119163E+03</rscale>
<asrwt>0</asrwt>
<pdfrwt beam="1">  1        4 0.18687874E-01 0.46119163E+03</pdfrwt>
<pdfrwt beam="2">  1       -4 0.17783735E+00 0.46119163E+03</pdfrwt>
<totfact> 0.95885404E+00</totfact>
</mgrwt>
</event>
<event>
 6      1 +2.6141198e-09 3.38161700e+02 7.81860800e-03 1.06758200e-01
        4 -1    0    0  501    0 +0.0000000000e+00 +0.0000000000e+00 +5.1737268659e+01 5.1752853721e+01 1.2700000000e+00 0.0000e+00 1.0000e+00
       -4 -1    0    0    0  501 -0.0000000000e+00 -0.0000000000e+00 -5.5246789217e+02 5.5246935190e+02 1.2700000000e+00 0.0000e+00 1.0000e+00
      -13  1    1    2    0    0 -6.1323652645e+00 -3.5849325602e+01 -1.1469743145e+02 1.2032577445e+02 1.0566000000e-01 0.0000e+00 1.0000e+00
       13  1    1    2    0    0 +3.5621747512e+01 +2.2032567625e+01 -7.8117280972e+00 4.2607243420e+01 1.0566000000e-01 0.0000e+00 -1.0000e+00
    10002  1    1    2    0    0 -5.3483646969e+01 +1.2411460032e+01 -2.6395983107e+02 2.8755753729e+02 1.0000000000e+02 0.0000e+00 0.0000e+00
   -10002  1    1    2    0    0 +2.3994264721e+01 +1.4052979445e+00 -1.1426163289e+02 1.5373165046e+02 1.0000000000e+02 0.0000e+00 0.0000e+00
<mgrwt>
<rscale>  0 0.33816167E+03</rscale>
<asrwt>0</asrwt>
<pdfrwt beam="1">  1        4 0.12936449E-01 0.33816167E+03</pdfrwt>
<pdfrwt beam="2">  1       -4 0.13811909E+00 0.33816167E+03</pdfrwt>
<totfact> 0.35693311E+01</totfact>
</mgrwt>
</event>
<event>
 6      1 +2.6141198e-09 3.48030100e+02 7.81860800e-03 1.06342700e-01
       -4 -1    0    0    0  501 -0.0000000000e+00 +0.0000000000e+00 +3.1597896344e+02 3.1598151566e+02 1.2700000000e+00 0.0000e+00 1.0000e+00
        4 -1    0    0  501    0 +0.0000000000e+00 -0.0000000000e+00 -9.5825909007e+01 9.5834324419e+01 1.2700000000e+00 0.0000e+00 1.0000e+00
      -13  1    1    2    0    0 -2.8544703171e+00 +3.0402365782e+01 +1.0765147131e+01 3.2378255091e+01 1.0566000000e-01 0.0000e+00 -1.0000e+00
       13  1    1    2    0    0 +6.3021823198e+00 -1.9515730982e+01 +8.2377738534e+00 2.2100980518e+01 1.0566000000e-01 0.0000e+00 1.0000e+00
    10002  1    1    2    0    0 -9.0296726060e+01 +5.4284408861e+01 +7.6720962552e+01 1.6427538427e+02 1.0000000000e+02 0.0000e+00 0.0000e+00
   -10002  1    1    2    0    0 +8.6849014057e+01 -6.5171043661e+01 +1.2442917090e+02 1.9306122020e+02 1.0000000000e+02 0.0000e+00 0.0000e+00
<mgrwt>
<rscale>  0 0.34803005E+03</rscale>
<asrwt>0</asrwt>
<pdfrwt beam="1">  1        4 0.23957848E-01 0.34803005E+03</pdfrwt>
<pdfrwt beam="2">  1       -4 0.78996111E-01 0.34803005E+03</pdfrwt>
<totfact> 0.44562747E+01</totfact>
</mgrwt>
</event>
<event>
 6      1 +2.6141198e-09 7.76917500e+02 7.81860800e-03 9.59404200e-02
        4 -1    0    0  501    0 +0.0000000000e+00 +0.0000000000e+00 +4.8832603883e+02 4.8832769028e+02 1.2700000000e+00 0.0000e+00 -1.0000e+00
       -4 -1    0    0    0  501 -0.0000000000e+00 -0.0000000000e+00 -3.0901178366e+02 3.0901439342e+02 1.2700000000e+00 0.0000e+00 -1.0000e+00
      -13  1    1    2    0    0 +2.7957445560e+00 +4.9843345386e+01 +1.1545725272e+02 1.2578777220e+02 1.0566000000e-01 0.0000e+00 -1.0000e+00
       13  1    1    2    0    0 -2.5591157273e+01 -4.2695385750e+01 +9.2194509088e+01 1.0477424285e+02 1.0566000000e-01 0.0000e+00 1.0000e+00
    10002  1    1    2    0    0 +2.2346971140e+02 -1.1450293104e+02 -1.2788109053e+02 2.9900368968e+02 1.0000000000e+02 0.0000e+00 0.0000e+00
   -10002  1    1    2    0    0 -2.0067429868e+02 +1.0735497140e+02 +9.9543583891e+01 2.6777637896e+02 1.0000000000e+02 0.0000e+00 0.0000e+00
<mgrwt>
<rscale>  0 0.77691750E+03</rscale>
<asrwt>0</asrwt>
<pdfrwt beam="1">  1        4 0.12208204E+00 0.77691750E+03</pdfrwt>
<pdfrwt beam="2">  1       -4 0.77253479E-01 0.77691750E+03</pdfrwt>
<totfact> 0.14934257E+00</totfact>
</mgrwt>
</event>
<event>
 6      1 +2.6141198e-09 8.86825400e+02 7.81860800e-03 9.44220200e-02
       -4 -1    0    0    0  501 -0.0000000000e+00 +0.0000000000e+00 +7.0970096468e+02 7.0970210100e+02 1.2700000000e+00 0.0000e+00 -1.0000e+00
        4 -1    0    0  501    0 +0.0000000000e+00 -0.0000000000e+00 -2.7703612504e+02 2.7703903602e+02 1.2700000000e+00 0.0000e+00 -1.0000e+00
      -13  1    1    2    0    0 +2.2393789381e+01 -5.5599812134e+01 +4.1483706218e+01 7.2895335638e+01 1.0566000000e-01 0.0000e+00 1.0000e+00
       13  1    1    2    0    0 -4.2797286985e+01 +1.3883764896e+00 +4.3743578731e+00 4.3042787240e+01 1.0566000000e-01 0.0000e+00 -1.0000e+00
    10002  1    1    2    0    0 -2.3596863862e+02 -3.9446191151e+01 +4.9647996282e+02 5.6011566117e+02 1.0000000000e+02 0.0000e+00 0.0000e+00
   -10002  1    1    2    0    0 +2.5637213623e+02 +9.3657626795e+01 -1.0967318727e+02 3.1068735297e+02 1.0000000000e+02 0.0000e+00 0.0000e+00
<mgrwt>
<rscale>  0 0.88682535E+03</rscale>
<asrwt>0</asrwt>
<pdfrwt beam="1">  1        4 0.69259538E-01 0.88682535E+03</pdfrwt>
<pdfrwt beam="2">  1       -4 0.17742575E+00 0.88682535E+03</pdfrwt>
<totfact> 0.70373562E-01</totfact>
</mgrwt>
</event>
<event>
 6      1 +2.6141198e-09 5.85315400e+02 7.81860800e-03 9.93634900e-02
        4 -1    0    0  501    0 +0.0000000000e+00 +0.0000000000e+00 +5.2154793651e+02 5.2154948277e+02 1.2700000000e+00 0.0000e+00 1.0000e+00
       -4 -1    0    0    0  501 -0.0000000000e+00 -0.0000000000e+00 -1.6421561013e+02 1.6422052098e+02 1.2700000000e+00 0.0000e+00 1.0000e+00
      -13  1    1    2    0    0 -5.0308791795e+01 +3.3319130466e+01 +7.0421346712e+01 9.2737889903e+01 1.0566000000e-01 0.0000e+00 -1.0000e+00
       13  1    1    2    0    0 +4.0207412497e+01 -4.1507252557e+00 +7.6201422911e+01 8.6258521652e+01 1.0566000000e-01 0.0000e+00 1.0000e+00
    10002  1    1    2    0    0 +1.0701400010e+02 +5.4693085330e+01 -7.8549718646e+01 1.7496682000e+02 1.0000000000e+02 0.0000e+00 0.0000e+00
   -10002  1    1    2    0    0 -9.6912620800e+01 -8.3861490541e+01 +2.8925927541e+02 3.3180677220e+02 1.0000000000e+02 0.0000e+00 0.0000e+00
<mgrwt>
<rscale>  0 0.58531539E+03</rscale>
<asrwt>0</asrwt>
<pdfrwt beam="1">  1        4 0.13038779E+00 0.58531539E+03</pdfrwt>
<pdfrwt beam="2">  1       -4 0.41054710E-01 0.58531539E+03</pdfrwt>
<totfact> 0.48786153E+00</totfact>
</mgrwt>
</event>
<event>
 6      1 +2.6141198e-09 6.09051200e+02 7.81860800e-03 9.88680400e-02
       -4 -1    0    0    0  501 -0.0000000000e+00 +0.0000000000e+00 +1.9352866583e+02 1.9353283287e+02 1.2700000000e+00 0.0000e+00 -1.0000e+00
        4 -1    0    0  501    0 +0.0000000000e+00 -0.0000000000e+00 -4.7917387249e+02 4.7917555548e+02 1.2700000000e+00 0.0000e+00 -1.0000e+00
      -13  1    1    2    0    0 +8.3855860402e+01 -4.3932174431e+01 -6.8475632640e+00 9.4914390693e+01 1.0566000000e-01 0.0000e+00 1.0000e+00
       13  1    1    2    0    0 -1.0666594005e+01 -7.7651265103e+01 -2.7938087950e+01 8.3210835365e+01 1.0566000000e-01 0.0000e+00 -1.0000e+00
    10002  1    1    2    0    0 -7.9184235026e+01 -7.8127778327e+01 +1.1447936370e+01 1.5001715925e+02 1.0000000000e+02 0.0000e+00 0.0000e+00
   -10002  1    1    2    0    0 +5.9949686294e+00 +1.9971121786e+02 -2.6230749181e+02 3.4456600304e+02 1.0000000000e+02 0.0000e+00 0.0000e+00
<mgrwt>
<rscale>  0 0.60905122E+03</rscale>
<asrwt>0</asrwt>
<pdfrwt beam="1">  1        4 0.11979420E+00 0.60905122E+03</pdfrwt>
<pdfrwt beam="2">  1       -4 0.48382899E-01 0.60905122E+03</pdfrwt>
<totfact> 0.43134572E+00</totfact>
</mgrwt>
</event>
<event>
 6      1 +2.6141198e-09 3.69669000e+02 7.81860800e-03 1.05482000e-01
       -4 -1    0    0    0  501 -0.0000000000e+00 +0.0000000000e+00 +3.9652486057e+01 3.9672818786e+01 1.2700000000e+00 0.0000e+00 1.0000e+00
        4 -1    0    0  501    0 +0.0000000000e+00 -0.0000000000e+00 -8.6133822655e+02 8.6133916282e+02 1.2700000000e+00 0.0000e+00 1.0000e+00
      -13  1    1    2    0    0 +2.7567937693e+00 -1.5810819641e+01 -3.7132751175e+01 4.0452865207e+01 1.0566000000e-01 0.0000e+00 1.0000e+00
       13  1    1    2    0    0 +1.1498222242e+01 +2.1269060650e+01 -4.8924139716e+01 5.4572563314e+01 1.0566000000e-01 0.0000e+00 -1.0000e+00
    10002  1    1    2    0    0 -9.1288463503e+01 +2.0754139230e+01 -6.1278249815e+02 6.2790660763e+02 1.0000000000e+02 0.0000e+00 0.0000e+00
   -10002  1    1    2    0    0 +7.7033447491e+01 -2.6212380239e+01 -1.2284635145e+02 1.7807994546e+02 1.0000000000e+02 0.0000e+00 0.0000e+00
<mgrwt>
<rscale>  0 0.36966895E+03</rscale>
<asrwt>0</asrwt>
<pdfrwt beam="1">  1        4 0.21533715E+00 0.36966895E+03</pdfrwt>
<pdfrwt beam="2">  1       -4 0.99157830E-02 0.36966895E+03</pdfrwt>
<totfact> 0.16574780E+01</totfact>
</mgrwt>
</event>
<event>
 6      1 +2.6141198e-09 4.03616400e+02 7.81860800e-03 1.04253500e-01
       -4 -1    0    0    0  501 -0.0000000000e+00 +0.0000000000e+00 +5.5022100623e+02 5.5022247191e+02 1.2700000000e+00 0.0000e+00 1.0000e+00
        4 -1    0    0  501    0 +0.0000000000e+00 -0.0000000000e+00 -7.4011510642e+01 7.4022406118e+01 1.2700000000e+00 0.0000e+00 1.0000e+00
      -13  1    1    2    0    0 +2.6561839907e+01 -6.2223082825e+00 +1.8473942443e+01 3.2947627730e+01 1.0566000000e-01 0.0000e+00 1.0000e+00
       13  1    1    2    0    0 -9.2599732137e+01 -9.1154497579e+00 +1.8504943828e+02 2.0712582549e+02 1.0566000000e-01 0.0000e+00 -1.0000e+00
    10002  1    1    2    0    0 +1.0450284010e+02 +4.4792805799e+01 +2.0209688923e+02 2.5252800177e+02 1.0000000000e+02 0.0000e+00 0.0000e+00
   -10002  1    1    2    0    0 -3.8464947866e+01 -2.9455047759e+01 +7.0589225631e+01 1.3164342303e+02 1.0000000000e+02 0.0000e+00 0.0000e+00
<mgrwt>
<rscale>  0 0.40361638E+03</rscale>
<asrwt>0</asrwt>
<pdfrwt beam="1">  1        4 0.18504423E-01 0.40361638E+03</pdfrwt>
<pdfrwt beam="2">  1       -4 0.13755680E+00 0.40361638E+03</pdfrwt>
<totfact> 0.19282489E+01</totfact>
</mgrwt>
</event>
<event>
 6      1 +2.6141198e-09 4.45906400e+02 7.81860800e-03 1.02895000e-01
       -4 -1    0    0    0  501 -0.0000000000e+00 +0.0000000000e+00 +1.4864249581e+02 1.4864792115e+02 1.2700000000e+00 0.0000e+00 -1.0000e+00
        4 -1    0    0  501    0 +0.0000000000e+00 -0.0000000000e+00 -3.3440127294e+02 3.3440368455e+02 1.2700000000e+00 0.0000e+00 -1.0000e+00
      -13  1    1    2    0    0 +4.5083420676e+01 +1.1028114263e+02 +6.1737365955e+00 1.1930034127e+02 1.0566000000e-01 0.0000e+00 -1.0000e+00
       13  1    1    2    0    0 -7.9797100588e+00 -1.2621667071e+01 +2.3284536723e+01 2.7661581059e+01 1.0566000000e-01 0.0000e+00 1.0000e+00
    10002  1    1    2    0    0 -1.6263574595e+01 +1.8970146329e+01 -8.3415883732e+01 1.3259932115e+02 1.0000000000e+02 0.0000e+00 0.0000e+00
   -10002  1    1    2    0    0 -2.0840136022e+01 -1.1662962188e+02 -1.3180116671e+02 2.0349036222e+02 1.0000000000e+02 0.0000e+00 0.0000e+00
<mgrwt>
<rscale>  0 0.44590641E+03</rscale>
<asrwt>0</asrwt>
<pdfrwt beam="1">  1        4 0.83601297E-01 0.44590641E+03</pdfrwt>
<pdfrwt beam="2">  1       -4 0.37161604E-01 0.44590641E+03</pdfrwt>
<totfact> 0.17134981E+01</totfact>
</mgrwt>
</event>
<event>
 6      1 +2.6141198e-09 3.94526400e+02 7.81860800e-03 1.04569200e-01
       -4 -1    0    0    0  501 -0.0000000000e+00 +0.0000000000e+00 +5.1666833374e+01 5.1682439676e+01 1.2700000000e+00 0.0000e+00 1.0000e+00
        4 -1    0    0  501    0 +0.0000000000e+00 -0.0000000000e+00 -7.5301804081e+02 7.5301911177e+02 1.2700000000e+00 0.0000e+00 1.0000e+00
      -13  1    1    2    0    0 +6.9232959774e+01 -3.2503480234e+01 -2.1626114079e+01 7.9481940846e+01 1.0566000000e-01 0.0000e+00 1.0000e+00
       13  1    1    2    0    0 +7.2797097330e+00 +2.2060159327e+01 -8.9739062769e+01 9.2697116212e+01 1.0566000000e-01 0.0000e+00 -1.0000e+00
    10002  1    1    2    0    0 -1.8303178098e+01 -2.6398951733e+01 -3.1091122866e+02 3.2817328210e+02 1.0000000000e+02 0.0000e+00 0.0000e+00
   -10002  1    1    2    0    0 -5.8209491410e+01 +3.6842272640e+01 -2.7907480193e+02 3.0434921228e+02 1.0000000000e+02 0.0000e+00 0.0000e+00
<mgrwt>
<rscale>  0 0.39452639E+03</rscale>
<asrwt>0</asrwt>
<pdfrwt beam="1">  1        4 0.18825656E+00 0.39452639E+03</pdfrwt>
<pdfrwt beam="2">  1       -4 0.12918795E-01 0.39452639E+03</pdfrwt>
<totfact> 0.15678685E+01</totfact>
</mgrwt>
</event>
<event>
 6      1 +2.6141198e-09 1.04245200e+03 7.81860800e-03 9.26317200e-02
       -4 -1    0    0    0  501 -0.0000000000e+00 +0.0000000000e+00 +3.6217685299e+02 3.6217907966e+02 1.2700000000e+00 0.0000e+00 1.0000e+00
        4 -1    0    0  501    0 +0.0000000000e+00 -0.0000000000e+00 -7.5011642362e+02 7.5011749872e+02 1.2700000000e+00 0.0000e+00 1.0000e+00
      -13  1    1    2    0    0 +4.7051188196e+01 -8.3481804969e+00 +1.6052892688e+01 5.0410444909e+01 1.0566000000e-01 0.0000e+00 1.0000e+00
       13  1    1    2    0    0 -3.8743723060e+01 +2.5216957967e+01 -3.7832808803e+01 5.9735279623e+01 1.0566000000e-01 0.0000e+00 -1.0000e+00
    10002  1    1    2    0    0 -1.1591740388e+02 +8.0897988654e+01 -6.4738894841e+02 6.7014459605e+02 1.0000000000e+02 0.0000e+00 0.0000e+00
   -10002  1    1    2    0    0 +1.0760993875e+02 -9.7766766124e+01 +2.8122929389e+02 3.3200625780e+02 1.0000000000e+02 0.0000e+00 0.0000e+00
<mgrwt>
<rscale>  0 0.10424522E+04</rscale>
<asrwt>0</asrwt>
<pdfrwt beam="1">  1        4 0.18752952E+00 0.10424522E+04</pdfrwt>
<pdfrwt beam="2">  1       -4 0.90544627E-01 0.10424522E+04</pdfrwt>
<totfact> 0.32283379E-01</totfact>
</mgrwt>
</event>
<event>
 6      1 +2.6141198e-09 3.95961900e+02 7.81860800e-03 1.04518700e-01
        4 -1    0    0  501    0 +0.0000000000e+00 +0.0000000000e+00 +2.1653548442e+02 2.1653920872e+02 1.2700000000e+00 0.0000e+00 1.0000e+00
       -4 -1    0    0    0  501 -0.0000000000e+00 -0.0000000000e+00 -1.8100881116e+02 1.8101326642e+02 1.2700000000e+00 0.0000e+00 1.0000e+00
      -13  1    1    2    0    0 -4.3488874058e+01 +2.7706672629e+01 -3.7095092036e+01 6.3521641133e+01 1.0566000000e-01 0.0000e+00 1.0000e+00
       13  1    1    2    0    0 +2.4848580463e+01 -1.1364000681e+01 +3.4839406745e+01 4.4276267784e+01 1.0566000000e-01 0.0000e+00 -1.0000e+00
    10002  1    1    2    0    0 -6.7569199452e+01 -5.6455268187e+01 +6.6339226420e+01 1.4884114681e+02 1.0000000000e+02 0.0000e+00 0.0000e+00
   -10002  1    1    2    0    0 +8.6209493047e+01 +4.0112596239e+01 -2.8556867868e+01 1.4091341941e+02 1.0000000000e+02 0.0000e+00 0.0000e+00
<mgrwt>
<rscale>  0 0.39596190E+03</rscale>
<asrwt>0</asrwt>
<pdfrwt beam="1">  1        4 0.54134893E-01 0.39596190E+03</pdfrwt>
<pdfrwt beam="2">  1       -4 0.45253225E-01 0.39596190E+03</pdfrwt>
<totfact> 0.29602239E+01</totfact>
</mgrwt>
</event>
<event>
 6      1 +2.6141198e-09 6.51257100e+02 7.81860800e-03 9.80442300e-02
        4 -1    0    0  501    0 +0.0000000000e+00 +0.0000000000e+00 +4.4440549001e+02 4.4440730467e+02 1.2700000000e+00 0.0000e+00 -1.0000e+00
       -4 -1    0    0    0  501 -0.0000000000e+00 -0.0000000000e+00 -2.3859329113e+02 2.3859667113e+02 1.2700000000e+00 0.0000e+00 -1.0000e+00
      -13  1    1    2    0    0 -1.4832529604e+01 -4.6979920231e+01 -4.2876536269e+01 6.5310989625e+01 1.0566000000e-01 0.0000e+00 -1.0000e+00
       13  1    1    2    0    0 -6.5974976352e+01 +2.4393525211e+01 -6.9128725273e+01 9.8623188951e+01 1.0566000000e-01 0.0000e+00 1.0000e+00
    10002  1    1    2    0    0 -5.1846165655e+01 -9.3033775183e+01 +2.7617010598e+02 3.1243116947e+02 1.0000000000e+02 0.0000e+00 0.0000e+00
   -10002  1    1    2    0    0 +1.3265367161e+02 +1.1562017020e+02 +4.1647354433e+01 2.0663862776e+02 1.0000000000e+02 0.0000e+00 0.0000e+00
<mgrwt>
<rscale>  0 0.65125707E+03</rscale>
<asrwt>0</asrwt>
<pdfrwt beam="1">  1        4 0.11110202E+00 0.65125707E+03</pdfrwt>
<pdfrwt beam="2">  1       -4 0.59648973E-01 0.65125707E+03</pdfrwt>
<totfact> 0.33362523E+00</totfact>
</mgrwt>
</event>
<event>
 6      1 +2.6141198e-09 4.11506100e+02 7.81860800e-03 1.03986700e-01
       -4 -1    0    0    0  501 -0.0000000000e+00 +0.0000000000e+00 +8.2713676202e+01 8.2723425526e+01 1.2700000000e+00 0.0000e+00 1.0000e+00
        4 -1    0    0  501    0 +0.0000000000e+00 -0.0000000000e+00 -5.1177699215e+02 5.1177856794e+02 1.2700000000e+00 0.0000e+00 1.0000e+00
      -13  1    1    2    0    0 +8.2744723242e+00 -7.9885372352e+01 -9.7178302175e+01 1.2607050879e+02 1.0566000000e-01 0.0000e+00 -1.0000e+00
       13  1    1    2    0    0 -3.2098632774e+01 -4.9491554910e+00 -1.8804788695e+01 3.7529290000e+01 1.0566000000e-01 0.0000e+00 1.0000e+00
    10002  1    1    2    0    0 -6.3412276154e+01 +9.4991901190e+01 -2.2457550888e+02 2.7106961697e+02 1.0000000000e+02 0.0000e+00 0.0000e+00
   -10002  1    1    2    0    0 +8.7236436604e+01 -1.0157373347e+01 -8.8504716208e+01 1.5983257770e+02 1.0000000000e+02 0.0000e+00 0.0000e+00
<mgrwt>
<rscale>  0 0.41150613E+03</rscale>
<asrwt>0</asrwt>
<pdfrwt beam="1">  1        4 0.12794565E+00 0.41150613E+03</pdfrwt>
<pdfrwt beam="2">  1       -4 0.20679836E-01 0.41150613E+03</pdfrwt>
<totfact> 0.18916592E+01</totfact>
</mgrwt>
</event>
<event>
 6      1 +2.6141198e-09 3.33621500e+02 7.81860800e-03 1.06954600e-01
        4 -1    0    0  501    0 +0.0000000000e+00 +0.0000000000e+00 +1.7122315486e+02 1.7122786473e+02 1.2700000000e+00 0.0000e+00 1.0000e+00
       -4 -1    0    0    0  501 -0.0000000000e+00 -0.0000000000e+00 -1.6250259047e+02 1.6250755308e+02 1.2700000000e+00 0.0000e+00 1.0000e+00
      -13  1    1    2    0    0 +2.2434259785e+01 -4.6059229444e+01 -1.9074126037e+01 5.4667925489e+01 1.0566000000e-01 0.0000e+00 -1.0000e+00
       13  1    1    2    0    0 -3.8094428148e+01 -7.3310236534e-01 +9.4455473718e+00 3.9254966873e+01 1.0566000000e-01 0.0000e+00 1.0000e+00
    10002  1    1    2    0    0 +2.4763864301e+01 +5.1591816022e+01 +6.1281574869e+01 1.3050055890e+02 1.0000000000e+02 0.0000e+00 0.0000e+00
   -10002  1    1    2    0    0 -9.1036959385e+00 -4.7994842120e+00 -4.2932431813e+01 1.0931196654e+02 1.0000000000e+02 0.0000e+00 0.0000e+00
<mgrwt>
<rscale>  0 0.33362146E+03</rscale>
<asrwt>0</asrwt>
<pdfrwt beam="1">  1        4 0.42806998E-01 0.33362146E+03</pdfrwt>
<pdfrwt beam="2">  1       -4 0.40626857E-01 0.33362146E+03</pdfrwt>
<totfact> 0.58902468E+01</totfact>
</mgrwt>
</event>
<event>
 6      1 +2.6141198e-09 3.96801600e+02 7.81860800e-03 1.04489300e-01
       -4 -1    0    0    0  501 -0.0000000000e+00 +0.0000000000e+00 +6.4174744228e+02 6.4174869892e+02 1.2700000000e+00 0.0000e+00 -1.0000e+00
        4 -1    0    0  501    0 +0.0000000000e+00 -0.0000000000e+00 -6.1329122513e+01 6.1342270647e+01 1.2700000000e+00 0.0000e+00 -1.0000e+00
      -13  1    1    2    0    0 +2.6038063793e+01 +2.4290181002e+01 +7.0041919955e+01 7.8574012079e+01 1.0566000000e-01 0.0000e+00 -1.0000e+00
       13  1    1    2    0    0 +6.9081240667e+00 -3.2848152346e+01 +5.8907594637e+01 6.7799993810e+01 1.0566000000e-01 0.0000e+00 1.0000e+00
    10002  1    1    2    0    0 +1.0054043917e+02 +3.5358194398e+00 +1.2073721984e+02 1.8627495318e+02 1.0000000000e+02 0.0000e+00 0.0000e+00
   -10002  1    1    2    0    0 -1.3348662703e+02 +5.0221519046e+00 +3.3073158533e+02 3.7044201050e+02 1.0000000000e+02 0.0000e+00 0.0000e+00
<mgrwt>
<rscale>  0 0.39680157E+03</rscale>
<asrwt>0</asrwt>
<pdfrwt beam="1">  1        4 0.15334081E-01 0.39680157E+03</pdfrwt>
<pdfrwt beam="2">  1       -4 0.16043866E+00 0.39680157E+03</pdfrwt>
<totfact> 0.18053484E+01</totfact>
</mgrwt>
</event>
<event>
 6      1 +2.6141198e-09 3.73064300e+02 7.81860800e-03 1.05352700e-01
        4 -1    0    0  501    0 +0.0000000000e+00 +0.0000000000e+00 +2.3510266690e+02 2.3510609708e+02 1.2700000000e+00 0.0000e+00 1.0000e+00
       -4 -1    0    0    0  501 -0.0000000000e+00 -0.0000000000e+00 -1.4798873273e+02 1.4799418204e+02 1.2700000000e+00 0.0000e+00 1.0000e+00
      -13  1    1    2    0    0 +4.5777945730e+01 -5.4285807852e+01 -6.0497304443e+01 9.3287213799e+01 1.0566000000e-01 0.0000e+00 -1.0000e+00
       13  1    1    2    0    0 -8.7373234613e+00 +7.8753761027e+00 +2.4204235069e+01 2.6911308577e+01 1.0566000000e-01 0.0000e+00 1.0000e+00
    10002  1    1    2    0    0 +2.7166510301e+01 +2.5250144231e+01 +8.4518635083e+01 1.3608449119e+02 1.0000000000e+02 0.0000e+00 0.0000e+00
   -10002  1    1    2    0    0 -6.4207132571e+01 +2.1160287518e+01 +3.8888368461e+01 1.2681726555e+02 1.0000000000e+02 0.0000e+00 0.0000e+00
<mgrwt>
<rscale>  0 0.37306432E+03</rscale>
<asrwt>0</asrwt>
<pdfrwt beam="1">  1        4 0.58776777E-01 0.37306432E+03</pdfrwt>
<pdfrwt beam="2">  1       -4 0.36998293E-01 0.37306432E+03</pdfrwt>
<totfact> 0.37120144E+01</totfact>
</mgrwt>
</event>
<event>
 6      1 +2.6141198e-09 4.21127400e+02 7.81860800e-03 1.03670000e-01
        4 -1    0    0  501    0 +0.0000000000e+00 +0.0000000000e+00 +5.2008694373e+02 5.2008849433e+02 1.2700000000e+00 0.0000e+00 -1.0000e+00
       -4 -1    0    0    0  501 -0.0000000000e+00 -0.0000000000e+00 -8.5242927526e+01 8.5252387610e+01 1.2700000000e+00 0.0000e+00 -1.0000e+00
      -13  1    1    2    0    0 -1.6654672622e+01 -1.7595477583e+01 -3.3145453698e+00 2.4453554477e+01 1.0566000000e-01 0.0000e+00 1.0000e+00
       13  1    1    2    0    0 +1.2308364152e+01 +5.1494141540e+01 +9.9439974947e+01 1.1265639006e+02 1.0566000000e-01 0.0000e+00 -1.0000e+00
    10002  1    1    2    0    0 +5.4586392204e+01 +9.4164230328e+01 +1.1536749449e+02 1.8749996072e+02 1.0000000000e+02 0.0000e+00 0.0000e+00
   -10002  1    1    2    0    0 -5.0240083734e+01 -1.2806289429e+02 +2.2335109214e+02 2.8073097668e+02 1.0000000000e+02 0.0000e+00 0.0000e+00
<mgrwt>
<rscale>  0 0.42112737E+03</rscale>
<asrwt>0</asrwt>
<pdfrwt beam="1">  1        4 0.13002311E+00 0.42112737E+03</pdfrwt>
<pdfrwt beam="2">  1       -4 0.21312108E-01 0.42112737E+03</pdfrwt>
<totfact> 0.17206882E+01</totfact>
</mgrwt>
</event>
<event>
 6      1 +2.6141198e-09 3.90832800e+02 7.81860800e-03 1.04700100e-01
        4 -1    0    0  501    0 +0.0000000000e+00 +0.0000000000e+00 +7.6257313471e+01 7.6267888117e+01 1.2700000000e+00 0.0000e+00 -1.0000e+00
       -4 -1    0    0    0  501 -0.0000000000e+00 -0.0000000000e+00 -5.0072638798e+02 5.0072799853e+02 1.2700000000e+00 0.0000e+00 -1.0000e+00
      -13  1    1    2    0    0 -3.9758225164e+01 +2.2292673506e+01 -7.5665271375e+01 8.8334162228e+01 1.0566000000e-01 0.0000e+00 -1.0000e+00
       13  1    1    2    0    0 +1.0412084590e+01 +2.4158733640e+01 -6.4967920517e+01 7.0092066434e+01 1.0566000000e-01 0.0000e+00 1.0000e+00
    10002  1    1    2    0    0 -6.8414098834e+01 -1.0051600015e+02 -1.5413374917e+02 2.2032060239e+02 1.0000000000e+02 0.0000e+00 0.0000e+00
   -10002  1    1    2    0    0 +9.7760239407e+01 +5.4064593003e+01 -1.2970213344e+02 1.9824905560e+02 1.0000000000e+02 0.0000e+00 0.0000e+00
<mgrwt>
<rscale>  0 0.39083277E+03</rscale>
<asrwt>0</asrwt>
<pdfrwt beam="1">  1        4 0.19065853E-01 0.39083277E+03</pdfrwt>
<pdfrwt beam="2">  1       -4 0.12518311E+00 0.39083277E+03</pdfrwt>
<totfact> 0.23108430E+01</totfact>
</mgrwt>
</event>
<event>
 6      1 +2.6141198e-09 3.83267700e+02 7.81860800e-03 1.04973300e-01
        4 -1    0    0  501    0 +0.0000000000e+00 +0.0000000000e+00 +8.1352705628e+01 8.1362618032e+01 1.2700000000e+00 0.0000e+00 1.0000e+00
       -4 -1    0    0    0  501 -0.0000000000e+00 -0.0000000000e+00 -4.5137305247e+02 4.5137483912e+02 1.2700000000e+00 0.0000e+00 1.0000e+00
      -13  1    1    2    0    0 -1.8082423605e+00 +3.9818767226e+01 -6.0161956652e+01 7.2168387511e+01 1.0566000000e-01 0.0000e+00 1.0000e+00
       13  1    1    2    0    0 +3.3181908279e+01 -5.5663989580e+01 -6.3181540633e+01 9.0506557849e+01 1.0566000000e-01 0.0000e+00 -1.0000e+00
    10002  1    1    2    0    0 -5.3512690999e+01 +5.4854350216e+01 -2.2568867000e+02 2.5847240395e+02 1.0000000000e+02 0.0000e+00 0.0000e+00
   -10002  1    1    2    0    0 +2.2139025080e+01 -3.9009127861e+01 -2.0988179553e+01 1.1159010785e+02 1.0000000000e+02 0.0000e+00 0.0000e+00
<mgrwt>
<rscale>  0 0.38326771E+03</rscale>
<asrwt>0</asrwt>
<pdfrwt beam="1">  1        4 0.20339640E-01 0.38326771E+03</pdfrwt>
<pdfrwt beam="2">  1       -4 0.11284472E+00 0.38326771E+03</pdfrwt>
<totfact> 0.26454569E+01</totfact>
</mgrwt>
</event>
<event>
 6      1 +2.6141198e-09 3.67872400e+02 7.81860800e-03 1.05550900e-01
       -4 -1    0    0    0  501 -0.0000000000e+00 +0.0000000000e+00 +5.4747360106e+02 5.4747507410e+02 1.2700000000e+00 0.0000e+00 1.0000e+00
        4 -1    0    0  501    0 +0.0000000000e+00 -0.0000000000e+00 -6.1789459792e+01 6.1802509992e+01 1.2700000000e+00 0.0000e+00 1.0000e+00
      -13  1    1    2    0    0 +6.8352956867e+00 +7.4908389823e+01 +1.1142844207e+02 1.3444068209e+02 1.0566000000e-01 0.0000e+00 -1.0000e+00
       13  1    1    2    0    0 +1.1003000665e+01 -4.1458248430e+01 +7.2727346505e+01 8.4434178389e+01 1.0566000000e-01 0.0000e+00 1.0000e+00
    10002  1    1    2    0    0 -2.1066009178e+01 +3.8079037031e+01 +2.1156759664e+02 2.3802234717e+02 1.0000000000e+02 0.0000e+00 0.0000e+00
   -10002  1    1    2    0    0 +3.2277128263e+00 -7.1529178424e+01 +8.9960756049e+01 1.5238037644e+02 1.0000000000e+02 0.0000e+00 0.0000e+00
<mgrwt>
<rscale>  0 0.36787238E+03</rscale>
<asrwt>0</asrwt>
<pdfrwt beam="1">  1        4 0.15449180E-01 0.36787238E+03</pdfrwt>
<pdfrwt beam="2">  1       -4 0.13687022E+00 0.36787238E+03</pdfrwt>
<totfact> 0.26862045E+01</totfact>
</mgrwt>
</event>
<event>
 6      1 +2.6141198e-09 6.42668800e+02 7.81860800e-03 9.82063400e-02
        4 -1    0    0  501    0 +0.0000000000e+00 +0.0000000000e+00 +5.1145692164e+02 5.1145849841e+02 1.2700000000e+00 0.0000e+00 1.0000e+00
       -4 -1    0    0    0  501 -0.0000000000e+00 -0.0000000000e+00 -2.0188174713e+02 2.0188574176e+02 1.2700000000e+00 0.0000e+00 1.0000e+00
      -13  1    1    2    0    0 +5.7500075536e+00 -6.1544423984e+01 -4.6986091059e+01 7.7643303816e+01 1.0566000000e-01 0.0000e+00 -1.0000e+00
       13  1    1    2    0    0 +1.2170863814e+02 -1.3296161143e+01 +7.1270741382e+01 1.4166619300e+02 1.0566000000e-01 0.0000e+00 1.0000e+00
    10002  1    1    2    0    0 +5.4365081838e+01 -8.4360542635e+01 +9.4613785100e+01 1.7036440828e+02 1.0000000000e+02 0.0000e+00 0.0000e+00
   -10002  1    1    2    0    0 -1.8182372753e+02 +1.5920112776e+02 +1.9067673909e+02 3.2367033507e+02 1.0000000000e+02 0.0000e+00 0.0000e+00
<mgrwt>
<rscale>  0 0.64266882E+03</rscale>
<asrwt>0</asrwt>
<pdfrwt beam="1">  1        4 0.12786493E+00 0.64266882E+03</pdfrwt>
<pdfrwt beam="2">  1       -4 0.50471134E-01 0.64266882E+03</pdfrwt>
<totfact> 0.33555657E+00</totfact>
</mgrwt>
</event>
<event>
 6      1 +2.6141198e-09 9.01528100e+02 7.81860800e-03 9.42367300e-02
       -4 -1    0    0    0  501 -0.0000000000e+00 +0.0000000000e+00 +1.4558121883e+03 1.4558127423e+03 1.2700000000e+00 0.0000e+00 -1.0000e+00
        4 -1    0    0  501    0 +0.0000000000e+00 -0.0000000000e+00 -1.3956689251e+02 1.3957267062e+02 1.2700000000e+00 0.0000e+00 -1.0000e+00
      -13  1    1    2    0    0 +1.3308117016e+01 -6.6622102010e+01 +5.9743641103e+01 9.0470571298e+01 1.0566000000e-01 0.0000e+00 1.0000e+00
       13  1    1    2    0    0 +7.7001109646e+00 +3.0610945543e+01 +8.3274409883e+01 8.9055938608e+01 1.0566000000e-01 0.0000e+00 -1.0000e+00
    10002  1    1    2    0    0 -2.6510028128e+02 +2.4791947843e+02 +9.1747894511e+02 9.9172064697e+02 1.0000000000e+02 0.0000e+00 0.0000e+00
   -10002  1    1    2    0    0 +2.4409205330e+02 -2.1190832196e+02 +2.5574829971e+02 4.2413825600e+02 1.0000000000e+02 0.0000e+00 0.0000e+00
<mgrwt>
<rscale>  0 0.90152811E+03</rscale>
<asrwt>0</asrwt>
<pdfrwt beam="1">  1        4 0.34892515E-01 0.90152811E+03</pdfrwt>
<pdfrwt beam="2">  1       -4 0.36395384E+00 0.90152811E+03</pdfrwt>
<totfact> 0.19544444E-01</totfact>
</mgrwt>
</event>
<event>
 6      1 +2.6141198e-09 4.30295400e+02 7.81860800e-03 1.03376700e-01
        4 -1    0    0  501    0 +0.0000000000e+00 +0.0000000000e+00 +1.4015295670e+02 1.4015871065e+02 1.2700000000e+00 0.0000e+00 1.0000e+00
       -4 -1    0    0    0  501 -0.0000000000e+00 -0.0000000000e+00 -3.3025771840e+02 3.3026016027e+02 1.2700000000e+00 0.0000e+00 1.0000e+00
      -13  1    1    2    0    0 -1.6148449659e+01 +1.1554863071e+01 -7.2193793592e+01 7.4874844134e+01 1.0566000000e-01 0.0000e+00 -1.0000e+00
       13  1    1    2    0    0 +5.5798408202e+01 -5.4472039094e+01 -9.9296619942e+00 7.8608363119e+01 1.0566000000e-01 0.0000e+00 1.0000e+00
    10002  1    1    2    0    0 -1.1253032167e+02 +4.3799855548e+01 -6.5296915377e+00 1.5692080013e+02 1.0000000000e+02 0.0000e+00 0.0000e+00
   -10002  1    1    2    0    0 +7.2880363127e+01 -8.8267952474e-01 -1.0145161457e+02 1.6001486354e+02 1.0000000000e+02 0.0000e+00 0.0000e+00
<mgrwt>
<rscale>  0 0.43029536E+03</rscale>
<asrwt>0</asrwt>
<pdfrwt beam="1">  1        4 0.35039264E-01 0.43029536E+03</pdfrwt>
<pdfrwt beam="2">  1       -4 0.82565453E-01 0.43029536E+03</pdfrwt>
<totfact> 0.19762089E+01</totfact>
</mgrwt>
</event>
<event>
 6      1 +2.6141198e-09 5.71046700e+02 7.81860800e-03 9.96736500e-02
       -4 -1    0    0    0  501 -0.0000000000e+00 +0.0000000000e+00 +7.8403854154e+02 7.8403957012e+02 1.2700000000e+00 0.0000e+00 1.0000e+00
        4 -1    0    0  501    0 +0.0000000000e+00 -0.0000000000e+00 -1.0397407967e+02 1.0398183564e+02 1.2700000000e+00 0.0000e+00 1.0000e+00
      -13  1    1    2    0    0 -1.5133615803e+01 +4.5948188463e+01 +1.2722920560e+02 1.3611592218e+02 1.0566000000e-01 0.0000e+00 1.0000e+00
       13  1    1    2    0    0 +6.9859897760e+01 +1.5711042189e+01 +7.5046382030e+01 1.0372662523e+02 1.0566000000e-01 0.0000e+00 -1.0000e+00
    10002  1    1    2    0    0 +6.2722461086e+01 -7.3526878486e+01 +4.7340288934e+02 4.9340713881e+02 1.0000000000e+02 0.0000e+00 0.0000e+00
   -10002  1    1    2    0    0 -1.1744874304e+02 +1.1867647834e+01 +4.3859848950e+00 1.5477171955e+02 1.0000000000e+02 0.0000e+00 0.0000e+00
<mgrwt>
<rscale>  0 0.57104671E+03</rscale>
<asrwt>0</asrwt>
<pdfrwt beam="1">  1        4 0.25994618E-01 0.57104671E+03</pdfrwt>
<pdfrwt beam="2">  1       -4 0.19601073E+00 0.57104671E+03</pdfrwt>
<totfact> 0.39365126E+00</totfact>
</mgrwt>
</event>
<event>
 6      1 +2.6141198e-09 5.25131900e+02 7.81860800e-03 1.00742000e-01
       -4 -1    0    0    0  501 -0.0000000000e+00 +0.0000000000e+00 +9.8691239884e+02 9.8691321599e+02 1.2700000000e+00 0.0000e+00 1.0000e+00
        4 -1    0    0  501    0 +0.0000000000e+00 -0.0000000000e+00 -6.9848497160e+01 6.9860041908e+01 1.2700000000e+00 0.0000e+00 1.0000e+00
      -13  1    1    2    0    0 -2.6999848087e+01 +6.0587674687e+01 +2.0114243858e+02 2.1179742653e+02 1.0566000000e-01 0.0000e+00 1.0000e+00
       13  1    1    2    0    0 +1.7812081546e+01 -2.1050747748e+01 +2.6183062653e+01 3.8025888072e+01 1.0566000000e-01 0.0000e+00 -1.0000e+00
    10002  1    1    2    0    0 +8.3007518367e+01 +1.0859698329e+01 +6.5574179274e+02 6.6858468417e+02 1.0000000000e+02 0.0000e+00 0.0000e+00
   -10002  1    1    2    0    0 -7.3819751826e+01 -5.0396625268e+01 +3.3996607703e+01 1.3836525913e+02 1.0000000000e+02 0.0000e+00 0.0000e+00
<mgrwt>
<rscale>  0 0.52513191E+03</rscale>
<asrwt>0</asrwt>
<pdfrwt beam="1">  1        4 0.17463670E-01 0.52513191E+03</pdfrwt>
<pdfrwt beam="2">  1       -4 0.24672964E+00 0.52513191E+03</pdfrwt>
<totfact> 0.39577223E+00</totfact>
</mgrwt>
</event>
<event>
 6      1 +2.6141198e-09 5.24523000e+02 7.81860800e-03 1.00756900e-01
        4 -1    0    0  501    0 +0.0000000000e+00 +0.0000000000e+00 +1.2158512835e+02 1.2159176097e+02 1.2700000000e+00 0.0000e+00 1.0000e+00
       -4 -1    0    0    0  501 -0.0000000000e+00 -0.0000000000e+00 -5.6568048520e+02 5.6568191082e+02 1.2700000000e+00 0.0000e+00 1.0000e+00
      -13  1    1    2    0    0 +4.4954170600e+01 -1.9022293994e+01 -3.5824798895e+01 6.0548761367e+01 1.0566000000e-01 0.0000e+00 -1.0000e+00
       13  1    1    2    0    0 -2.3908395585e+01 +5.1361082369e+01 -2.8650673757e+00 5.6725584498e+01 1.0566000000e-01 0.0000e+00 1.0000e+00
    10002  1    1    2    0    0 +1.2171362456e+02 +4.0276229340e+01 -5.4440002917e+01 1.7146455894e+02 1.0000000000e+02 0.0000e+00 0.0000e+00
   -10002  1    1    2    0    0 -1.4275939958e+02 -7.2615017715e+01 -3.5096548766e+02 3.9853476699e+02 1.0000000000e+02 0.0000e+00 0.0000e+00
<mgrwt>
<rscale>  0 0.52452303E+03</rscale>
<asrwt>0</asrwt>
<pdfrwt beam="1">  1        4 0.30397291E-01 0.52452303E+03</pdfrwt>
<pdfrwt beam="2">  1       -4 0.14142112E+00 0.52452303E+03</pdfrwt>
<totfact> 0.71616242E+00</totfact>
</mgrwt>
</event>
<event>
 6      1 +2.6141198e-09 7.23066400e+02 7.81860800e-03 9.67857900e-02
       -3 -1    0    0    0  501 -0.0000000000e+00 +0.0000000000e+00 +6.6554132844e+02 6.6554133611e+02 1.0100000000e-01 0.0000e+00 -1.0000e+00
        3 -1    0    0  501    0 +0.0000000000e+00 -0.0000000000e+00 -1.9639085356e+02 1.9639087953e+02 1.0100000000e-01 0.0000e+00 -1.0000e+00
      -13  1    1    2    0    0 +7.6119915562e+00 -6.0675592820e+01 +4.3025338435e+01 7.4770722151e+01 1.0566000000e-01 0.0000e+00 -1.0000e+00
       13  1    1    2    0    0 -4.0205382621e+01 +3.6233072657e-01 -1.8397704786e+01 4.4216408501e+01 1.0566000000e-01 0.0000e+00 1.0000e+00
    10002  1    1    2    0    0 -2.7803250142e+00 +1.1029477385e+02 +5.5934775492e+02 5.7882862600e+02 1.0000000000e+02 0.0000e+00 0.0000e+00
   -10002  1    1    2    0    0 +3.5373716079e+01 -4.9981511754e+01 -1.1482491369e+02 1.6411645898e+02 1.0000000000e+02 0.0000e+00 0.0000e+00
<mgrwt>
<rscale>  0 0.72306637E+03</rscale>
<asrwt>0</asrwt>
<pdfrwt beam="1">  1        3 0.49097718E-01 0.72306637E+03</pdfrwt>
<pdfrwt beam="2">  1       -3 0.16638533E+00 0.72306637E+03</pdfrwt>
<totfact> 0.26423367E+00</totfact>
</mgrwt>
</event>
<event>
 6      1 +2.6141198e-09 4.26787200e+02 7.81860800e-03 1.03488000e-01
       -4 -1    0    0    0  501 -0.0000000000e+00 +0.0000000000e+00 +1.1990577661e+02 1.1991250212e+02 1.2700000000e+00 0.0000e+00 -1.0000e+00
        4 -1    0    0  501    0 +0.0000000000e+00 -0.0000000000e+00 -3.7975332040e+02 3.7975544401e+02 1.2700000000e+00 0.0000e+00 -1.0000e+00
      -13  1    1    2    0    0 +6.2505986869e+01 -1.7463780866e+01 -2.5491969481e+01 6.9726850701e+01 1.0566000000e-01 0.0000e+00 -1.0000e+00
       13  1    1    2    0    0 -1.8807198427e+01 -2.1535603416e+01 +3.5099026800e+01 4.5270804870e+01 1.0566000000e-01 0.0000e+00 1.0000e+00
    10002  1    1    2    0    0 -3.7825672434e+01 +1.0598349386e+02 -1.1893913891e+02 1.9185880545e+02 1.0000000000e+02 0.0000e+00 0.0000e+00
   -10002  1    1    2    0    0 -5.8731160085e+00 -6.6984109582e+01 -1.5051546220e+02 1.9281148511e+02 1.0000000000e+02 0.0000e+00 0.0000e+00
<mgrwt>
<rscale>  0 0.42678720E+03</rscale>
<asrwt>0</asrwt>
<pdfrwt beam="1">  1        4 0.94939434E-01 0.42678720E+03</pdfrwt>
<pdfrwt beam="2">  1       -4 0.29977551E-01 0.42678720E+03</pdfrwt>
<totfact> 0.19400620E+01</totfact>
</mgrwt>
</event>
<event>
 6      1 +2.6141198e-09 4.28651600e+02 7.81860800e-03 1.03428700e-01
        4 -1    0    0  501    0 +0.0000000000e+00 +0.0000000000e+00 +6.8640900710e+02 6.8641018198e+02 1.2700000000e+00 0.0000e+00 -1.0000e+00
       -4 -1    0    0    0  501 -0.0000000000e+00 -0.0000000000e+00 -6.6914290568e+01 6.6926341467e+01 1.2700000000e+00 0.0000e+00 -1.0000e+00
      -13  1    1    2    0    0 -3.0484198612e+01 +1.8928348814e+01 +1.0952002975e+02 1.1524850036e+02 1.0566000000e-01 0.0000e+00 -1.0000e+00
       13  1    1    2    0    0 +4.6242975493e+01 -2.0794752592e+01 +4.2219999375e+01 6.5980103282e+01 1.0566000000e-01 0.0000e+00 1.0000e+00
    10002  1    1    2    0    0 +8.5115056865e+01 +7.2752827522e+01 +1.2873880776e+02 1.9776558710e+02 1.0000000000e+02 0.0000e+00 0.0000e+00
   -10002  1    1    2    0    0 -1.0087383375e+02 -7.0886423743e+01 +3.3901587964e+02 3.7434233271e+02 1.0000000000e+02 0.0000e+00 0.0000e+00
<mgrwt>
<rscale>  0 0.42865162E+03</rscale>
<asrwt>0</asrwt>
<pdfrwt beam="1">  1        4 0.17160390E+00 0.42865162E+03</pdfrwt>
<pdfrwt beam="2">  1       -4 0.16730226E-01 0.42865162E+03</pdfrwt>
<totfact> 0.12906229E+01</totfact>
</mgrwt>
</event>
<event>
 6      1 +2.6141198e-09 4.94545200e+02 7.81860800e-03 1.01521300e-01
        4 -1    0    0  501    0 +0.0000000000e+00 +0.0000000000e+00 +4.3189907969e+02 4.3190094690e+02 1.2700000000e+00 0.0000e+00 1.0000e+00
       -4 -1    0    0    0  501 -0.0000000000e+00 -0.0000000000e+00 -1.4156449256e+02 1.4157018914e+02 1.2700000000e+00 0.0000e+00 1.0000e+00
      -13  1    1    2    0    0 -4.1760817212e+01 -5.9607716199e-02 +9.6740587271e+00 4.2866863468e+01 1.0566000000e-01 0.0000e+00 1.0000e+00
       13  1    1    2    0    0 +1.2983554658e+01 -2.5112295007e+01 +1.2137889948e+02 1.2462763921e+02 1.0566000000e-01 0.0000e+00 -1.0000e+00
    10002  1    1    2    0    0 +8.8160823884e+01 +1.1338316738e+02 -1.8457227883e+01 1.7597938167e+02 1.0000000000e+02 0.0000e+00 0.0000e+00
   -10002  1    1    2    0    0 -5.9383561330e+01 -8.8211264655e+01 +1.7773885681e+02 2.2999725170e+02 1.0000000000e+02 0.0000e+00 0.0000e+00
<mgrwt>
<rscale>  0 0.49454522E+03</rscale>
<asrwt>0</asrwt>
<pdfrwt beam="1">  1        4 0.10797571E+00 0.49454522E+03</pdfrwt>
<pdfrwt beam="2">  1       -4 0.35392069E-01 0.49454522E+03</pdfrwt>
<totfact> 0.10409750E+01</totfact>
</mgrwt>
</event>
<event>
 6      1 +2.6141198e-09 4.31465800e+02 7.81860800e-03 1.03339800e-01
       -4 -1    0    0    0  501 -0.0000000000e+00 +0.0000000000e+00 +2.8261624489e+02 2.8261909839e+02 1.2700000000e+00 0.0000e+00 -1.0000e+00
        4 -1    0    0  501    0 +0.0000000000e+00 -0.0000000000e+00 -1.6467187356e+02 1.6467677080e+02 1.2700000000e+00 0.0000e+00 -1.0000e+00
      -13  1    1    2    0    0 -4.0678168787e+00 +1.2572446510e+01 -3.9680386881e+01 4.1822934049e+01 1.0566000000e-01 0.0000e+00 1.0000e+00
       13  1    1    2    0    0 +2.6468418162e+01 -7.8081987693e+00 +4.5585815117e+01 5.3288111545e+01 1.0566000000e-01 0.0000e+00 -1.0000e+00
    10002  1    1    2    0    0 +5.9508984537e+01 -9.5715097311e+01 -1.2169772486e+01 1.5116481884e+02 1.0000000000e+02 0.0000e+00 0.0000e+00
   -10002  1    1    2    0    0 -8.1909585821e+01 +9.0950849570e+01 +1.2420871558e+02 2.0102000476e+02 1.0000000000e+02 0.0000e+00 0.0000e+00
<mgrwt>
<rscale>  0 0.43146578E+03</rscale>
<asrwt>0</asrwt>
<pdfrwt beam="1">  1        4 0.41168937E-01 0.43146578E+03</pdfrwt>
<pdfrwt beam="2">  1       -4 0.70655030E-01 0.43146578E+03</pdfrwt>
<totfact> 0.20323170E+01</totfact>
</mgrwt>
</event>
<event>
 6      1 +2.6141198e-09 1.06931000e+03 7.81860800e-03 9.23563200e-02
       -4 -1    0    0    0  501 -0.0000000000e+00 +0.0000000000e+00 +4.1909795654e+02 4.1909988078e+02 1.2700000000e+00 0.0000e+00 -1.0000e+00
        4 -1    0    0  501    0 +0.0000000000e+00 -0.0000000000e+00 -6.8207044319e+02 6.8207162555e+02 1.2700000000e+00 0.0000e+00 -1.0000e+00
      -13  1    1    2    0    0 -3.6324969284e+01 +7.3093147026e+00 -2.9883148023e+01 4.7601924065e+01 1.0566000000e-01 0.0000e+00 1.0000e+00
       13  1    1    2    0    0 -1.7662472446e+01 +2.0590615351e+02 -1.0818016588e+02 2.3326437027e+02 1.0566000000e-01 0.0000e+00 -1.0000e+00
    10002  1    1    2    0    0 -5.4190657440e+00 +2.4147848353e+02 +1.2367790856e+02 2.8920139928e+02 1.0000000000e+02 0.0000e+00 0.0000e+00
   -10002  1    1    2    0    0 +5.9406507474e+01 -4.5469395174e+02 -2.4858708132e+02 5.3110381271e+02 1.0000000000e+02 0.0000e+00 0.0000e+00
<mgrwt>
<rscale>  0 0.10693101E+04</rscale>
<asrwt>0</asrwt>
<pdfrwt beam="1">  1        4 0.17051800E+00 0.10693101E+04</pdfrwt>
<pdfrwt beam="2">  1       -4 0.10477488E+00 0.10693101E+04</pdfrwt>
<totfact> 0.29905680E-01</totfact>
</mgrwt>
</event>
<event>
 6      1 +2.6141198e-09 7.56141100e+02 7.81860800e-03 9.62576500e-02
       -4 -1    0    0    0  501 -0.0000000000e+00 +0.0000000000e+00 +5.8547731352e+02 5.8547869094e+02 1.2700000000e+00 0.0000e+00 -1.0000e+00
        4 -1    0    0  501    0 +0.0000000000e+00 -0.0000000000e+00 -2.4413483283e+02 2.4413813610e+02 1.2700000000e+00 0.0000e+00 -1.0000e+00
      -13  1    1    2    0    0 +1.5506192126e+01 +6.4509164017e+00 +4.8754413521e+01 5.1566077207e+01 1.0566000000e-01 0.0000e+00 1.0000e+00
       13  1    1    2    0    0 +7.0602293248e+00 -3.7295205508e+01 -1.9181131788e+01 4.2528886333e+01 1.0566000000e-01 0.0000e+00 -1.0000e+00
    10002  1    1    2    0    0 +1.5162820483e+02 +1.7232409370e+02 -8.8763816978e+01 2.6564209187e+02 1.0000000000e+02 0.0000e+00 0.0000e+00
   -10002  1    1    2    0    0 -1.7419462628e+02 -1.4147980460e+02 +4.0053301593e+02 4.6987977163e+02 1.0000000000e+02 0.0000e+00 0.0000e+00
<mgrwt>
<rscale>  0 0.75614112E+03</rscale>
<asrwt>0</asrwt>
<pdfrwt beam="1">  1        4 0.61034294E-01 0.75614112E+03</pdfrwt>
<pdfrwt beam="2">  1       -4 0.14636991E+00 0.75614112E+03</pdfrwt>
<totfact> 0.15791528E+00</totfact>
</mgrwt>
</event>
<event>
 6      1 +2.6141198e-09 5.64020500e+02 7.81860800e-03 9.98299800e-02
        4 -1    0    0  501    0 +0.0000000000e+00 +0.0000000000e+00 +2.4696223383e+02 2.4696549929e+02 1.2700000000e+00 0.0000e+00 -1.0000e+00
       -4 -1    0    0    0  501 -0.0000000000e+00 -0.0000000000e+00 -3.2202548056e+02 3.2202798486e+02 1.2700000000e+00 0.0000e+00 -1.0000e+00
      -13  1    1    2    0    0 -2.0512788994e+01 -4.1553776740e+01 +7.1556603757e+01 8.5251683731e+01 1.0566000000e-01 0.0000e+00 -1.0000e+00
       13  1    1    2    0    0 +3.4170678151e+01 -2.5750894001e+01 -2.4499172315e+01 4.9304811077e+01 1.0566000000e-01 0.0000e+00 1.0000e+00
    10002  1    1    2    0    0 +8.0609265033e+01 +1.9181693472e+02 -7.9525205675e+01 2.4416356893e+02 1.0000000000e+02 0.0000e+00 0.0000e+00
   -10002  1    1    2    0    0 -9.4267154190e+01 -1.2451226397e+02 -4.2595472495e+01 1.9027342041e+02 1.0000000000e+02 0.0000e+00 0.0000e+00
<mgrwt>
<rscale>  0 0.56402047E+03</rscale>
<asrwt>0</asrwt>
<pdfrwt beam="1">  1        4 0.61741280E-01 0.56402047E+03</pdfrwt>
<pdfrwt beam="2">  1       -4 0.80507091E-01 0.56402047E+03</pdfrwt>
<totfact> 0.65915253E+00</totfact>
</mgrwt>
</event>
<event>
 6      1 +2.6141198e-09 5.83469400e+02 7.81860800e-03 9.94030800e-02
        4 -1    0    0  501    0 +0.0000000000e+00 +0.0000000000e+00 +1.5582847958e+02 1.5583365473e+02 1.2700000000e+00 0.0000e+00 1.0000e+00
       -4 -1    0    0    0  501 -0.0000000000e+00 -0.0000000000e+00 -5.4615699300e+02 5.4615846959e+02 1.2700000000e+00 0.0000e+00 1.0000e+00
      -13  1    1    2    0    0 +1.8516248022e+00 +4.6430527198e+01 -6.1147375567e+01 7.6799967924e+01 1.0566000000e-01 0.0000e+00 -1.0000e+00
       13  1    1    2    0    0 -1.0252992091e+02 -9.5872503542e+01 -1.2984497031e+02 1.9121623648e+02 1.0566000000e-01 0.0000e+00 1.0000e+00
    10002  1    1    2    0    0 +1.8693331226e+02 +6.6861446308e+01 -3.9272398729e+01 2.2573621228e+02 1.0000000000e+02 0.0000e+00 0.0000e+00
   -10002  1    1    2    0    0 -8.6255016149e+01 -1.7419469965e+01 -1.6006376882e+02 2.0823970763e+02 1.0000000000e+02 0.0000e+00 0.0000e+00
<mgrwt>
<rscale>  0 0.58346945E+03</rscale>
<asrwt>0</asrwt>
<pdfrwt beam="1">  1        4 0.38957953E-01 0.58346945E+03</pdfrwt>
<pdfrwt beam="2">  1       -4 0.13654008E+00 0.58346945E+03</pdfrwt>
<totfact> 0.48213053E+00</totfact>
</mgrwt>
</event>
<event>
 6      1 +2.6141198e-09 4.65056500e+02 7.81860800e-03 1.02332500e-01
       -4 -1    0    0    0  501 -0.0000000000e+00 +0.0000000000e+00 +1.0658383585e+02 1.0659140192e+02 1.2700000000e+00 0.0000e+00 -1.0000e+00
        4 -1    0    0  501    0 +0.0000000000e+00 -0.0000000000e+00 -5.0726817312e+02 5.0726976291e+02 1.2700000000e+00 0.0000e+00 -1.0000e+00
      -13  1    1    2    0    0 +3.4985029533e+01 -3.8521743087e+01 -6.3570276544e+01 8.2152712711e+01 1.0566000000e-01 0.0000e+00 1.0000e+00
       13  1    1    2    0    0 -5.4832574851e+01 -1.0496436133e+01 -2.4976311032e+01 6.1160556841e+01 1.0566000000e-01 0.0000e+00 -1.0000e+00
    10002  1    1    2    0    0 +1.3601194119e+01 +1.6367375849e+02 -1.2523945169e+02 2.2947551494e+02 1.0000000000e+02 0.0000e+00 0.0000e+00
   -10002  1    1    2    0    0 +6.2463511990e+00 -1.1465557927e+02 -1.8689829801e+02 2.4107238034e+02 1.0000000000e+02 0.0000e+00 0.0000e+00
<mgrwt>
<rscale>  0 0.46505655E+03</rscale>
<asrwt>0</asrwt>
<pdfrwt beam="1">  1        4 0.12681818E+00 0.46505655E+03</pdfrwt>
<pdfrwt beam="2">  1       -4 0.26647105E-01 0.46505655E+03</pdfrwt>
<totfact> 0.12114880E+01</totfact>
</mgrwt>
</event>
<event>
 6      1 +2.6141198e-09 3.62108400e+02 7.81860800e-03 1.05775200e-01
       -4 -1    0    0    0  501 -0.0000000000e+00 +0.0000000000e+00 +1.0185626951e+03 1.0185634869e+03 1.2700000000e+00 0.0000e+00 1.0000e+00
        4 -1    0    0  501    0 +0.0000000000e+00 -0.0000000000e+00 -3.2169881044e+01 3.2194939764e+01 1.2700000000e+00 0.0000e+00 1.0000e+00
      -13  1    1    2    0    0 +3.5079309713e+01 -6.6887896387e+00 +1.4419434249e+02 1.4855072348e+02 1.0566000000e-01 0.0000e+00 -1.0000e+00
       13  1    1    2    0    0 -5.2835750102e+01 +1.9573249949e+01 +9.0090005778e+01 1.0625887684e+02 1.0566000000e-01 0.0000e+00 1.0000e+00
    10002  1    1    2    0    0 +4.6018524627e+01 +6.5031343871e+01 +3.1521460602e+02 3.4015735791e+02 1.0000000000e+02 0.0000e+00 0.0000e+00
   -10002  1    1    2    0    0 -2.8262084238e+01 -7.7915804181e+01 +4.3689385980e+02 4.5579146842e+02 1.0000000000e+02 0.0000e+00 0.0000e+00
<mgrwt>
<rscale>  0 0.36210839E+03</rscale>
<asrwt>0</asrwt>
<pdfrwt beam="1">  1        4 0.80457014E-02 0.36210839E+03</pdfrwt>
<pdfrwt beam="2">  1       -4 0.25464391E+00 0.36210839E+03</pdfrwt>
<totfact> 0.13630470E+01</totfact>
</mgrwt>
</event>
<event>
 6      1 +2.6141198e-09 4.62191500e+02 7.81860800e-03 1.02414800e-01
        4 -1    0    0  501    0 +0.0000000000e+00 +0.0000000000e+00 +2.6131732624e+02 2.6132041232e+02 1.2700000000e+00 0.0000e+00 1.0000e+00
       -4 -1    0    0    0  501 -0.0000000000e+00 -0.0000000000e+00 -2.0436303768e+02 2.0436698380e+02 1.2700000000e+00 0.0000e+00 1.0000e+00
      -13  1    1    2    0    0 -1.7340731023e+01 -6.4018543920e+00 -1.4743915288e+01 2.3644849209e+01 1.0566000000e-01 0.0000e+00 1.0000e+00
       13  1    1    2    0    0 +7.2155881989e+01 +4.0622564608e+01 +7.1824712772e+01 1.0961507465e+02 1.0566000000e-01 0.0000e+00 -1.0000e+00
    10002  1    1    2    0    0 +3.0223907861e+01 -1.6360011304e+01 -1.1561433971e+02 1.5667740782e+02 1.0000000000e+02 0.0000e+00 0.0000e+00
   -10002  1    1    2    0    0 -8.5039058828e+01 -1.7860698912e+01 +1.1548783078e+02 1.7575006444e+02 1.0000000000e+02 0.0000e+00 0.0000e+00
<mgrwt>
<rscale>  0 0.46219148E+03</rscale>
<asrwt>0</asrwt>
<pdfrwt beam="1">  1        4 0.65330210E-01 0.46219148E+03</pdfrwt>
<pdfrwt beam="2">  1       -4 0.51091639E-01 0.46219148E+03</pdfrwt>
<totfact> 0.15557125E+01</totfact>
</mgrwt>
</event>
<event>
 6      1 +2.6141198e-09 5.15486200e+02 7.81860800e-03 1.00981400e-01
       -4 -1    0    0    0  501 -0.0000000000e+00 +0.0000000000e+00 +3.0414911290e+02 3.0415176439e+02 1.2700000000e+00 0.0000e+00 1.0000e+00
        4 -1    0    0  501    0 +0.0000000000e+00 -0.0000000000e+00 -2.1841206552e+02 2.1841575782e+02 1.2700000000e+00 0.0000e+00 1.0000e+00
      -13  1    1    2    0    0 -8.2576094971e+00 -4.2255787056e+01 +3.2313336847e+01 5.3832170275e+01 1.0566000000e-01 0.0000e+00 1.0000e+00
       13  1    1    2    0    0 +3.6281484063e+01 +1.5304724564e+01 -3.6132457941e+01 5.3442926199e+01 1.0566000000e-01 0.0000e+00 -1.0000e+00
    10002  1    1    2    0    0 +6.3452905730e+01 -1.4011831397e+02 +7.9443199178e+01 1.9992657415e+02 1.0000000000e+02 0.0000e+00 0.0000e+00
   -10002  1    1    2    0    0 -9.1476780296e+01 +1.6706937646e+02 +1.0112969298e+01 2.1536585159e+02 1.0000000000e+02 0.0000e+00 0.0000e+00
<mgrwt>
<rscale>  0 0.51548615E+03</rscale>
<asrwt>0</asrwt>
<pdfrwt beam="1">  1        4 0.54603810E-01 0.51548615E+03</pdfrwt>
<pdfrwt beam="2">  1       -4 0.76038071E-01 0.51548615E+03</pdfrwt>
<totfact> 0.97217295E+00</totfact>
</mgrwt>
</event>
<event>
 6      1 +2.6141198e-09 6.27216000e+02 7.81860800e-03 9.85049700e-02
        4 -1    0    0  501    0 +0.0000000000e+00 +0.0000000000e+00 +5.5786926892e+02 5.5787071450e+02 1.2700000000e+00 0.0000e+00 -1.0000e+00
       -4 -1    0    0    0  501 -0.0000000000e+00 -0.0000000000e+00 -1.7629178027e+02 1.7629635473e+02 1.2700000000e+00 0.0000e+00 -1.0000e+00
      -13  1    1    2    0    0 +3.8833409296e+01 -5.9194079653e+01 +5.1353033692e+01 8.7459236087e+01 1.0566000000e-01 0.0000e+00 1.0000e+00
       13  1    1    2    0    0 -3.8485356551e+01 +2.5464972136e+01 +5.4144282144e+01 7.1142124847e+01 1.0566000000e-01 0.0000e+00 -1.0000e+00
    10002  1    1    2    0    0 +1.7451425298e+01 +3.5350165981e+01 +4.0065444602e+02 4.1482306059e+02 1.0000000000e+02 0.0000e+00 0.0000e+00
   -10002  1    1    2    0    0 -1.7799478042e+01 -1.6210584640e+00 -1.2457427321e+02 1.6074264772e+02 1.0000000000e+02 0.0000e+00 0.0000e+00
<mgrwt>
<rscale>  0 0.62721600E+03</rscale>
<asrwt>0</asrwt>
<pdfrwt beam="1">  1        4 0.13946807E+00 0.62721600E+03</pdfrwt>
<pdfrwt beam="2">  1       -4 0.44073698E-01 0.62721600E+03</pdfrwt>
<totfact> 0.35572472E+00</totfact>
</mgrwt>
</event>
<event>
 6      1 +2.6141198e-09 4.53649000e+02 7.81860800e-03 1.02663900e-01
       -4 -1    0    0    0  501 -0.0000000000e+00 +0.0000000000e+00 +7.9642073047e+01 7.9652198333e+01 1.2700000000e+00 0.0000e+00 1.0000e+00
        4 -1    0    0  501    0 +0.0000000000e+00 -0.0000000000e+00 -6.4595543550e+02 6.4595668396e+02 1.2700000000e+00 0.0000e+00 1.0000e+00
      -13  1    1    2    0    0 +7.7302927941e+00 -7.8923888394e+01 -9.9137823109e+01 1.2695297051e+02 1.0566000000e-01 0.0000e+00 1.0000e+00
       13  1    1    2    0    0 -3.4738366450e+01 +1.8817490286e+01 -8.4880693123e+01 9.3624757802e+01 1.0566000000e-01 0.0000e+00 -1.0000e+00
    10002  1    1    2    0    0 -3.2312671773e+01 -2.0100660071e+01 -3.4170213783e+02 3.5806214026e+02 1.0000000000e+02 0.0000e+00 0.0000e+00
   -10002  1    1    2    0    0 +5.9320745429e+01 +8.0207058179e+01 -4.0592708395e+01 1.4696901372e+02 1.0000000000e+02 0.0000e+00 0.0000e+00
<mgrwt>
<rscale>  0 0.45364901E+03</rscale>
<asrwt>0</asrwt>
<pdfrwt beam="1">  1        4 0.16149026E+00 0.45364901E+03</pdfrwt>
<pdfrwt beam="2">  1       -4 0.19911942E-01 0.45364901E+03</pdfrwt>
<totfact> 0.11129241E+01</totfact>
</mgrwt>
</event>
<event>
 6      1 +2.6141198e-09 6.23652400e+02 7.81860800e-03 9.85751400e-02
        4 -1    0    0  501    0 +0.0000000000e+00 +0.0000000000e+00 +1.8438669181e+03 1.8438673554e+03 1.2700000000e+00 0.0000e+00 1.0000e+00
       -4 -1    0    0    0  501 -0.0000000000e+00 -0.0000000000e+00 -5.2726512868e+01 5.2741805612e+01 1.2700000000e+00 0.0000e+00 1.0000e+00
      -13  1    1    2    0    0 -1.5908008506e+01 +1.3622403366e+02 +3.5071789418e+02 3.7658080746e+02 1.0566000000e-01 0.0000e+00 -1.0000e+00
       13  1    1    2    0    0 -3.5166717970e+01 -5.9990956197e+00 +6.7545290311e+01 7.6387594597e+01 1.0566000000e-01 0.0000e+00 1.0000e+00
    10002  1    1    2    0    0 -9.7625095299e+01 +6.6206378864e+01 +7.5998495171e+02 7.7555855398e+02 1.0000000000e+02 0.0000e+00 0.0000e+00
   -10002  1    1    2    0    0 +1.4869982177e+02 -1.9643131690e+02 +6.1289226899e+02 6.6808220501e+02 1.0000000000e+02 0.0000e+00 0.0000e+00
<mgrwt>
<rscale>  0 0.62365243E+03</rscale>
<asrwt>0</asrwt>
<pdfrwt beam="1">  1        4 0.46096869E+00 0.62365243E+03</pdfrwt>
<pdfrwt beam="2">  1       -4 0.13183595E-01 0.62365243E+03</pdfrwt>
<totfact> 0.25941759E-01</totfact>
</mgrwt>
</event>
<event>
 6      1 +2.6141198e-09 3.38764900e+02 7.81860800e-03 1.06732300e-01
        4 -1    0    0  501    0 +0.0000000000e+00 +0.0000000000e+00 +2.4976501446e+02 2.4976824328e+02 1.2700000000e+00 0.0000e+00 -1.0000e+00
       -4 -1    0    0    0  501 -0.0000000000e+00 -0.0000000000e+00 -1.1486215615e+02 1.1486917696e+02 1.2700000000e+00 0.0000e+00 -1.0000e+00
      -13  1    1    2    0    0 -4.2104072018e+01 -2.5199987819e+01 +5.1510404554e+00 4.9338997237e+01 1.0566000000e-01 0.0000e+00 1.0000e+00
       13  1    1    2    0    0 +3.7030513634e+01 +2.0410527359e+01 +4.9517687621e+01 6.5114215947e+01 1.0566000000e-01 0.0000e+00 -1.0000e+00
    10002  1    1    2    0    0 -8.0420841526e+00 -4.9717520696e+01 +7.6264511197e+01 1.3547244240e+02 1.0000000000e+02 0.0000e+00 0.0000e+00
   -10002  1    1    2    0    0 +1.3115642537e+01 +5.4506981156e+01 +3.9696190449e+00 1.1471176465e+02 1.0000000000e+02 0.0000e+00 0.0000e+00
<mgrwt>
<rscale>  0 0.33876491E+03</rscale>
<asrwt>0</asrwt>
<pdfrwt beam="1">  1        4 0.62442534E-01 0.33876491E+03</pdfrwt>
<pdfrwt beam="2">  1       -4 0.28716820E-01 0.33876491E+03</pdfrwt>
<totfact> 0.52945838E+01</totfact>
</mgrwt>
</event>
<event>
 6      1 +2.6141198e-09 5.15215900e+02 7.81860800e-03 1.00988200e-01
        4 -1    0    0  501    0 +0.0000000000e+00 +0.0000000000e+00 +1.0590982064e+02 1.0591743486e+02 1.2700000000e+00 0.0000e+00 1.0000e+00
       -4 -1    0    0    0  501 -0.0000000000e+00 -0.0000000000e+00 -6.2655741896e+02 6.2655870608e+02 1.2700000000e+00 0.0000e+00 1.0000e+00
      -13  1    1    2    0    0 -3.5330050198e+01 -5.5356911093e+01 -8.0137498391e+01 1.0360805888e+02 1.0566000000e-01 0.0000e+00 1.0000e+00
       13  1    1    2    0    0 +2.2742451863e+01 +2.3715015462e+01 -3.9309791718e+01 5.1233699496e+01 1.0566000000e-01 0.0000e+00 -1.0000e+00
    10002  1    1    2    0    0 +9.3715508730e+01 -9.7860791285e+01 -4.0299881945e+01 1.7315718735e+02 1.0000000000e+02 0.0000e+00 0.0000e+00
   -10002  1    1    2    0    0 -8.1127910396e+01 +1.2950268692e+02 -3.6090042627e+02 4.0447719521e+02 1.0000000000e+02 0.0000e+00 0.0000e+00
<mgrwt>
<rscale>  0 0.51521585E+03</rscale>
<asrwt>0</asrwt>
<pdfrwt beam="1">  1        4 0.26478570E-01 0.51521585E+03</pdfrwt>
<pdfrwt beam="2">  1       -4 0.15664046E+00 0.51521585E+03</pdfrwt>
<totfact> 0.71266201E+00</totfact>
</mgrwt>
</event>
<event>
 6      1 +2.6141198e-09 6.57237900e+02 7.81860800e-03 9.79329200e-02
        4 -1    0    0  501    0 +0.0000000000e+00 +0.0000000000e+00 +1.0204631183e+03 1.0204639086e+03 1.2700000000e+00 0.0000e+00 1.0000e+00
       -4 -1    0    0    0  501 -0.0000000000e+00 -0.0000000000e+00 -1.0582026221e+02 1.0582788287e+02 1.2700000000e+00 0.0000e+00 1.0000e+00
      -13  1    1    2    0    0 +1.9127555546e+01 +8.1553295777e+00 -3.0201400887e+00 2.1012024935e+01 1.0566000000e-01 0.0000e+00 1.0000e+00
       13  1    1    2    0    0 +7.3686143439e+00 -9.9231675732e+01 +2.2208112989e+02 2.4335418912e+02 1.0566000000e-01 0.0000e+00 -1.0000e+00
    10002  1    1    2    0    0 -2.1176651137e+02 +7.6324035234e+01 +5.5811881095e+02 6.1005493263e+02 1.0000000000e+02 0.0000e+00 0.0000e+00
   -10002  1    1    2    0    0 +1.8527034148e+02 +1.4752310921e+01 +1.3746305534e+02 2.5187064477e+02 1.0000000000e+02 0.0000e+00 0.0000e+00
<mgrwt>
<rscale>  0 0.65723789E+03</rscale>
<asrwt>0</asrwt>
<pdfrwt beam="1">  1        4 0.25511683E+00 0.65723789E+03</pdfrwt>
<pdfrwt beam="2">  1       -4 0.26456117E-01 0.65723789E+03</pdfrwt>
<totfact> 0.16215878E+00</totfact>
</mgrwt>
</event>
<event>
 6      1 +2.6141198e-09 7.28803600e+02 7.81860800e-03 9.66920400e-02
        4 -1    0    0  501    0 +0.0000000000e+00 +0.0000000000e+00 +1.3408802236e+02 1.3409403656e+02 1.2700000000e+00 0.0000e+00 1.0000e+00
       -4 -1    0    0    0  501 -0.0000000000e+00 -0.0000000000e+00 -9.9028121693e+02 9.9028203129e+02 1.2700000000e+00 0.0000e+00 1.0000e+00
      -13  1    1    2    0    0 +3.1201770190e+01 -1.0796001115e+01 -1.3135061973e+02 1.3543670319e+02 1.0566000000e-01 0.0000e+00 -1.0000e+00
       13  1    1    2    0    0 -3.3963655784e+01 -7.9676457559e+01 -9.7249433627e+01 1.3022799741e+02 1.0566000000e-01 0.0000e+00 1.0000e+00
    10002  1    1    2    0    0 -4.4234080950e+01 -1.9264337248e+01 +7.8288579364e+01 1.3585606452e+02 1.0000000000e+02 0.0000e+00 0.0000e+00
   -10002  1    1    2    0    0 +4.6995966544e+01 +1.0973679592e+02 -7.0588172058e+02 7.2285530274e+02 1.0000000000e+02 0.0000e+00 0.0000e+00
<mgrwt>
<rscale>  0 0.72880365E+03</rscale>
<asrwt>0</asrwt>
<pdfrwt beam="1">  1        4 0.33522862E-01 0.72880365E+03</pdfrwt>
<pdfrwt beam="2">  1       -4 0.24757114E+00 0.72880365E+03</pdfrwt>
<totfact> 0.11362660E+00</totfact>
</mgrwt>
</event>
<event>
 6      1 +2.6141198e-09 4.62538500e+02 7.81860800e-03 1.02404800e-01
        4 -1    0    0  501    0 +0.0000000000e+00 +0.0000000000e+00 +1.9186302468e+02 1.9186722789e+02 1.2700000000e+00 0.0000e+00 1.0000e+00
       -4 -1    0    0    0  501 -0.0000000000e+00 -0.0000000000e+00 -2.7876028058e+02 2.7876317355e+02 1.2700000000e+00 0.0000e+00 1.0000e+00
      -13  1    1    2    0    0 +2.9218319490e+01 +2.8377371188e+01 +5.5344485662e+00 4.1105068718e+01 1.0566000000e-01 0.0000e+00 1.0000e+00
       13  1    1    2    0    0 +5.0195026902e+01 -2.3197313065e+01 -1.0477772178e+02 1.1847378699e+02 1.0566000000e-01 0.0000e+00 -1.0000e+00
    10002  1    1    2    0    0 -1.4987052160e+02 -1.1184614523e+01 +4.1342260612e+01 1.8519031119e+02 1.0000000000e+02 0.0000e+00 0.0000e+00
   -10002  1    1    2    0    0 +7.0457175204e+01 +6.0045564007e+00 -2.8996243302e+01 1.2586123454e+02 1.0000000000e+02 0.0000e+00 0.0000e+00
<mgrwt>
<rscale>  0 0.46253848E+03</rscale>
<asrwt>0</asrwt>
<pdfrwt beam="1">  1        4 0.47966643E-01 0.46253848E+03</pdfrwt>
<pdfrwt beam="2">  1       -4 0.69690957E-01 0.46253848E+03</pdfrwt>
<totfact> 0.15395455E+01</totfact>
</mgrwt>
</event>
<event>
 6      1 +2.6141198e-09 4.56088300e+02 7.81860800e-03 1.02592200e-01
       -4 -1    0    0    0  501 -0.0000000000e+00 +0.0000000000e+00 +6.8901443860e+02 6.8901560904e+02 1.2700000000e+00 0.0000e+00 1.0000e+00
        4 -1    0    0  501    0 +0.0000000000e+00 -0.0000000000e+00 -7.5469529893e+01 7.5480214907e+01 1.2700000000e+00 0.0000e+00 1.0000e+00
      -13  1    1    2    0    0 +2.1749358690e+01 +2.8792231711e+01 +4.1368522882e+01 5.4894380950e+01 1.0566000000e-01 0.0000e+00 -1.0000e+00
       13  1    1    2    0    0 -6.5841631297e+01 -4.4021927257e+01 +8.2811520945e+01 1.1458974499e+02 1.0566000000e-01 0.0000e+00 1.0000e+00
    10002  1    1    2    0    0 -1.0589135454e+02 +2.6598296093e+01 +1.5111100726e+02 2.1155373983e+02 1.0000000000e+02 0.0000e+00 0.0000e+00
   -10002  1    1    2    0    0 +1.4998362715e+02 -1.1368600547e+01 +3.3825385762e+02 3.8345795818e+02 1.0000000000e+02 0.0000e+00 0.0000e+00
<mgrwt>
<rscale>  0 0.45608827E+03</rscale>
<asrwt>0</asrwt>
<pdfrwt beam="1">  1        4 0.18868865E-01 0.45608827E+03</pdfrwt>
<pdfrwt beam="2">  1       -4 0.17225509E+00 0.45608827E+03</pdfrwt>
<totfact> 0.10295433E+01</totfact>
</mgrwt>
</event>
<event>
 6      1 +2.6141198e-09 4.88658400e+02 7.81860800e-03 1.01678200e-01
        4 -1    0    0  501    0 +0.0000000000e+00 +0.0000000000e+00 +4.0945240905e+01 4.0964931988e+01 1.2700000000e+00 0.0000e+00 -1.0000e+00
       -4 -1    0    0    0  501 -0.0000000000e+00 -0.0000000000e+00 -1.4575949786e+03 1.4575955319e+03 1.2700000000e+00 0.0000e+00 -1.0000e+00
      -13  1    1    2    0    0 -2.9381285833e+00 -7.5215217331e+01 -3.2388821176e+02 3.3251999399e+02 1.0566000000e-01 0.0000e+00 -1.0000e+00
       13  1    1    2    0    0 +2.6943996691e+01 -2.9532686966e+01 -3.7617895293e+01 5.4893312593e+01 1.0566000000e-01 0.0000e+00 1.0000e+00
    10002  1    1    2    0    0 +6.5062647887e+00 -4.6988530550e+01 -1.4434272390e+02 1.8189303293e+02 1.0000000000e+02 0.0000e+00 0.0000e+00
   -10002  1    1    2    0    0 -3.0512132896e+01 +1.5173643485e+02 -9.1080090676e+02 9.2925412438e+02 1.0000000000e+02 0.0000e+00 0.0000e+00
<mgrwt>
<rscale>  0 0.48865835E+03</rscale>
<asrwt>0</asrwt>
<pdfrwt beam="1">  1        4 0.10238846E-01 0.48865835E+03</pdfrwt>
<pdfrwt beam="2">  1       -4 0.36440110E+00 0.48865835E+03</pdfrwt>
<totfact> 0.19258882E+00</totfact>
</mgrwt>
</event>
<event>
 6      1 +2.6141198e-09 5.11402700e+02 7.81860800e-03 1.01084500e-01
       -4 -1    0    0    0  501 -0.0000000000e+00 +0.0000000000e+00 +2.8352106985e+02 2.8352391424e+02 1.2700000000e+00 0.0000e+00 -1.0000e+00
        4 -1    0    0  501    0 +0.0000000000e+00 -0.0000000000e+00 -2.3060563206e+02 2.3060912913e+02 1.2700000000e+00 0.0000e+00 -1.0000e+00
      -13  1    1    2    0    0 +5.2956538234e+00 -9.3474875275e+00 +3.5926646972e+01 3.7498727968e+01 1.0566000000e-01 0.0000e+00 -1.0000e+00
       13  1    1    2    0    0 +3.2224768509e+01 -3.0704578739e+01 -6.9408302875e+01 8.2454414878e+01 1.0566000000e-01 0.0000e+00 1.0000e+00
    10002  1    1    2    0    0 +6.4513477972e+01 -5.9539930801e+01 +1.5739769075e+02 2.0610925562e+02 1.0000000000e+02 0.0000e+00 0.0000e+00
   -10002  1    1    2    0    0 -1.0203390030e+02 +9.9591997067e+01 -7.1000597054e+01 1.8807064490e+02 1.0000000000e+02 0.0000e+00 0.0000e+00
<mgrwt>
<rscale>  0 0.51140272E+03</rscale>
<asrwt>0</asrwt>
<pdfrwt beam="1">  1        4 0.57652201E-01 0.51140272E+03</pdfrwt>
<pdfrwt beam="2">  1       -4 0.70881060E-01 0.51140272E+03</pdfrwt>
<totfact> 0.10127250E+01</totfact>
</mgrwt>
</event>
<event>
 6      1 +2.6141198e-09 3.66485400e+02 7.81860800e-03 1.05604500e-01
       -4 -1    0    0    0  501 -0.0000000000e+00 +0.0000000000e+00 +2.6103211093e+02 2.6103520037e+02 1.2700000000e+00 0.0000e+00 -1.0000e+00
        4 -1    0    0  501    0 +0.0000000000e+00 -0.0000000000e+00 -1.2862808238e+02 1.2863435185e+02 1.2700000000e+00 0.0000e+00 -1.0000e+00
      -13  1    1    2    0    0 -2.7398519207e+01 +4.5244555347e+01 +1.2475344443e+01 5.4345138019e+01 1.0566000000e-01 0.0000e+00 1.0000e+00
       13  1    1    2    0    0 +2.2755519118e+01 -1.8180768736e+01 +5.5097371511e+01 6.2322431865e+01 1.0566000000e-01 0.0000e+00 -1.0000e+00
    10002  1    1    2    0    0 -4.3450957933e+00 -1.8689315056e+01 +1.2060660942e+02 1.5784208751e+02 1.0000000000e+02 0.0000e+00 0.0000e+00
   -10002  1    1    2    0    0 +8.9880958824e+00 -8.3744715544e+00 -5.5775296826e+01 1.1515989483e+02 1.0000000000e+02 0.0000e+00 0.0000e+00
<mgrwt>
<rscale>  0 0.36648538E+03</rscale>
<asrwt>0</asrwt>
<pdfrwt beam="1">  1        4 0.32158191E-01 0.36648538E+03</pdfrwt>
<pdfrwt beam="2">  1       -4 0.65259197E-01 0.36648538E+03</pdfrwt>
<totfact> 0.38962238E+01</totfact>
</mgrwt>
</event>
<event>
 6      1 +2.6141198e-09 4.43146200e+02 7.81860800e-03 1.02978600e-01
        4 -1    0    0  501    0 +0.0000000000e+00 +0.0000000000e+00 +1.5680581126e+02 1.5681095416e+02 1.2700000000e+00 0.0000e+00 -1.0000e+00
       -4 -1    0    0    0  501 -0.0000000000e+00 -0.0000000000e+00 -3.1308043105e+02 3.1308300689e+02 1.2700000000e+00 0.0000e+00 -1.0000e+00
      -13  1    1    2    0    0 +1.2001038834e+01 -4.2732406800e+01 +3.1041787390e+01 5.4163523264e+01 1.0566000000e-01 0.0000e+00 -1.0000e+00
       13  1    1    2    0    0 -3.8934604969e+00 +3.4198251293e+01 -1.5149011057e+01 3.7605626257e+01 1.0566000000e-01 0.0000e+00 1.0000e+00
    10002  1    1    2    0    0 +9.9150714278e+01 -6.5973938601e+01 -1.4261741219e+02 2.1100509704e+02 1.0000000000e+02 0.0000e+00 0.0000e+00
   -10002  1    1    2    0    0 -1.0725829261e+02 +7.4508094108e+01 -2.9549983927e+01 1.6711971449e+02 1.0000000000e+02 0.0000e+00 0.0000e+00
<mgrwt>
<rscale>  0 0.44314623E+03</rscale>
<asrwt>0</asrwt>
<pdfrwt beam="1">  1        4 0.39202418E-01 0.44314623E+03</pdfrwt>
<pdfrwt beam="2">  1       -4 0.78271072E-01 0.44314623E+03</pdfrwt>
<totfact> 0.17875699E+01</totfact>
</mgrwt>
</event>
<event>
 6      1 +2.6141198e-09 4.26646000e+02 7.81860800e-03 1.03492500e-01
        4 -1    0    0  501    0 +0.0000000000e+00 +0.0000000000e+00 +3.3938585123e+02 3.3938822743e+02 1.2700000000e+00 0.0000e+00 -1.0000e+00
       -4 -1    0    0    0  501 -0.0000000000e+00 -0.0000000000e+00 -1.3407959365e+02 1.3408560823e+02 1.2700000000e+00 0.0000e+00 -1.0000e+00
      -13  1    1    2    0    0 -4.6246354300e+01 -4.6840499776e-01 +5.9129096879e+00 4.6625297364e+01 1.0566000000e-01 0.0000e+00 1.0000e+00
       13  1    1    2    0    0 -2.2185996685e+01 +9.9154476061e+01 +8.5780811478e+01 1.3297438608e+02 1.0566000000e-01 0.0000e+00 -1.0000e+00
    10002  1    1    2    0    0 +9.5875458663e+01 -8.9709310466e+01 +8.6391725510e+01 1.8628847037e+02 1.0000000000e+02 0.0000e+00 0.0000e+00
   -10002  1    1    2    0    0 -2.7443107678e+01 -8.9767605975e+00 +2.7220810908e+01 1.0758568184e+02 1.0000000000e+02 0.0000e+00 0.0000e+00
<mgrwt>
<rscale>  0 0.42664601E+03</rscale>
<asrwt>0</asrwt>
<pdfrwt beam="1">  1        4 0.84847511E-01 0.42664601E+03</pdfrwt>
<pdfrwt beam="2">  1       -4 0.33520947E-01 0.42664601E+03</pdfrwt>
<totfact> 0.20248365E+01</totfact>
</mgrwt>
</event>
<event>
 6      1 +2.6141198e-09 4.15094200e+02 7.81860800e-03 1.03867500e-01
       -4 -1    0    0    0  501 -0.0000000000e+00 +0.0000000000e+00 +8.3146828955e+01 8.3156527496e+01 1.2700000000e+00 0.0000e+00 1.0000e+00
        4 -1    0    0  501    0 +0.0000000000e+00 -0.0000000000e+00 -5.1802836213e+02 5.1802991890e+02 1.2700000000e+00 0.0000e+00 1.0000e+00
      -13  1    1    2    0    0 +6.8986483402e+01 +5.9541632126e+01 -6.7498814215e+01 1.1340388853e+02 1.0566000000e-01 0.0000e+00 1.0000e+00
       13  1    1    2    0    0 -1.2172888072e+01 -1.6901677312e+01 -5.5700408797e+01 5.9467576075e+01 1.0566000000e-01 0.0000e+00 -1.0000e+00
    10002  1    1    2    0    0 -8.8571969522e+01 +5.6876385024e+01 -1.9128737154e+02 2.4014740363e+02 1.0000000000e+02 0.0000e+00 0.0000e+00
   -10002  1    1    2    0    0 +3.1758374191e+01 -9.9516339838e+01 -1.2039493862e+02 1.8816757816e+02 1.0000000000e+02 0.0000e+00 0.0000e+00
<mgrwt>
<rscale>  0 0.41509420E+03</rscale>
<asrwt>0</asrwt>
<pdfrwt beam="1">  1        4 0.12950849E+00 0.41509420E+03</pdfrwt>
<pdfrwt beam="2">  1       -4 0.20788116E-01 0.41509420E+03</pdfrwt>
<totfact> 0.18181958E+01</totfact>
</mgrwt>
</event>
<event>
 6      1 +2.6141198e-09 7.01845500e+02 7.81860800e-03 9.71408100e-02
       -4 -1    0    0    0  501 -0.0000000000e+00 +0.0000000000e+00 +3.6472808451e+02 3.6473029560e+02 1.2700000000e+00 0.0000e+00 -1.0000e+00
        4 -1    0    0  501    0 +0.0000000000e+00 -0.0000000000e+00 -3.3763554654e+02 3.3763793506e+02 1.2700000000e+00 0.0000e+00 -1.0000e+00
      -13  1    1    2    0    0 +2.6070844577e+01 -7.5722923912e+01 -1.1632492124e+01 8.0925744852e+01 1.0566000000e-01 0.0000e+00 1.0000e+00
       13  1    1    2    0    0 +3.9915916737e+01 +4.1523527150e+01 +1.4534237816e+01 5.9403189720e+01 1.0566000000e-01 0.0000e+00 -1.0000e+00
    10002  1    1    2    0    0 +2.2466839125e+02 -8.9712500323e+00 +4.8053243817e+01 2.5072990167e+02 1.0000000000e+02 0.0000e+00 0.0000e+00
   -10002  1    1    2    0    0 -2.9065515256e+02 +4.3170646794e+01 -2.3862451541e+01 3.1130939441e+02 1.0000000000e+02 0.0000e+00 0.0000e+00
<mgrwt>
<rscale>  0 0.70184551E+03</rscale>
<asrwt>0</asrwt>
<pdfrwt beam="1">  1        4 0.84409462E-01 0.70184551E+03</pdfrwt>
<pdfrwt beam="2">  1       -4 0.91182596E-01 0.70184551E+03</pdfrwt>
<totfact> 0.24723692E+00</totfact>
</mgrwt>
</event>
<event>
 6      1 +2.6141198e-09 4.48225100e+02 7.81860800e-03 1.02825300e-01
       -4 -1    0    0    0  501 -0.0000000000e+00 +0.0000000000e+00 +2.7103024145e+02 2.7103321693e+02 1.2700000000e+00 0.0000e+00 -1.0000e+00
        4 -1    0    0  501    0 +0.0000000000e+00 -0.0000000000e+00 -1.8531053851e+02 1.8531489034e+02 1.2700000000e+00 0.0000e+00 -1.0000e+00
      -13  1    1    2    0    0 +5.0489468038e+01 -2.5937478273e+01 +3.4438165673e+01 6.6392300614e+01 1.0566000000e-01 0.0000e+00 1.0000e+00
       13  1    1    2    0    0 -5.8728824939e+00 +1.4915853749e+01 -4.6169488185e+01 4.8873369488e+01 1.0566000000e-01 0.0000e+00 -1.0000e+00
    10002  1    1    2    0    0 -6.3515973805e+01 +1.2623292181e+02 +5.3755571701e+01 1.8126966366e+02 1.0000000000e+02 0.0000e+00 0.0000e+00
   -10002  1    1    2    0    0 +1.8899388260e+01 -1.1521129728e+02 +4.3695453745e+01 1.5981277351e+02 1.0000000000e+02 0.0000e+00 0.0000e+00
<mgrwt>
<rscale>  0 0.44822509E+03</rscale>
<asrwt>0</asrwt>
<pdfrwt beam="1">  1        4 0.46328551E-01 0.44822509E+03</pdfrwt>
<pdfrwt beam="2">  1       -4 0.67758476E-01 0.44822509E+03</pdfrwt>
<totfact> 0.17562281E+01</totfact>
</mgrwt>
</event>
<event>
 6      1 +2.6141198e-09 3.37729100e+02 7.81860800e-03 1.06776700e-01
       -4 -1    0    0    0  501 -0.0000000000e+00 +0.0000000000e+00 +3.4165580950e+02 3.4165816991e+02 1.2700000000e+00 0.0000e+00 1.0000e+00
        4 -1    0    0  501    0 +0.0000000000e+00 -0.0000000000e+00 -8.3454406093e+01 8.3464068894e+01 1.2700000000e+00 0.0000e+00 1.0000e+00
      -13  1    1    2    0    0 +2.5989070126e+01 -6.2535913840e+01 +5.4872809918e+01 8.7161968301e+01 1.0566000000e-01 0.0000e+00 1.0000e+00
       13  1    1    2    0    0 -1.4816667250e+01 +2.1904911419e+01 +6.1802736577e+01 6.7223122399e+01 1.0566000000e-01 0.0000e+00 -1.0000e+00
    10002  1    1    2    0    0 +1.8904410956e+01 +3.6865752646e+01 +1.2431654573e+02 1.6483647659e+02 1.0000000000e+02 0.0000e+00 0.0000e+00
   -10002  1    1    2    0    0 -3.0076813832e+01 +3.7652497738e+00 +1.7209311185e+01 1.0590067152e+02 1.0000000000e+02 0.0000e+00 0.0000e+00
<mgrwt>
<rscale>  0 0.33772911E+03</rscale>
<asrwt>0</asrwt>
<pdfrwt beam="1">  1        4 0.20865105E-01 0.33772911E+03</pdfrwt>
<pdfrwt beam="2">  1       -4 0.85415455E-01 0.33772911E+03</pdfrwt>
<totfact> 0.48113908E+01</totfact>
</mgrwt>
</event>
<event>
 6      1 +2.6141198e-09 5.43286000e+02 7.81860800e-03 1.00306000e-01
       -4 -1    0    0    0  501 -0.0000000000e+00 +0.0000000000e+00 +2.1905532396e+02 2.1905900542e+02 1.2700000000e+00 0.0000e+00 1.0000e+00
        4 -1    0    0  501    0 +0.0000000000e+00 -0.0000000000e+00 -3.3684741044e+02 3.3684980454e+02 1.2700000000e+00 0.0000e+00 1.0000e+00
      -13  1    1    2    0    0 +6.9220529582e+01 +6.1677008082e+01 -4.9113270490e+01 1.0491739391e+02 1.0566000000e-01 0.0000e+00 1.0000e+00
       13  1    1    2    0    0 +4.3053275663e+01 -3.1284092231e+01 -7.5691766195e+01 9.2528555624e+01 1.0566000000e-01 0.0000e+00 -1.0000e+00
    10002  1    1    2    0    0 -9.8542401859e+01 -3.5260659336e+01 +1.3325826792e+02 1.9675285266e+02 1.0000000000e+02 0.0000e+00 0.0000e+00
   -10002  1    1    2    0    0 -1.3731403386e+01 +4.8677434853e+00 -1.2624531772e+02 1.6171000777e+02 1.0000000000e+02 0.0000e+00 0.0000e+00
<mgrwt>
<rscale>  0 0.54328596E+03</rscale>
<asrwt>0</asrwt>
<pdfrwt beam="1">  1        4 0.84212611E-01 0.54328596E+03</pdfrwt>
<pdfrwt beam="2">  1       -4 0.54764591E-01 0.54328596E+03</pdfrwt>
<totfact> 0.76791505E+00</totfact>
</mgrwt>
</event>
<event>
 6      1 +2.6141198e-09 5.04518800e+02 7.81860800e-03 1.01260600e-01
       -4 -1    0    0    0  501 -0.0000000000e+00 +0.0000000000e+00 +9.8768325535e+01 9.8776490265e+01 1.2700000000e+00 0.0000e+00 -1.0000e+00
        4 -1    0    0  501    0 +0.0000000000e+00 -0.0000000000e+00 -6.4424816223e+02 6.4424941399e+02 1.2700000000e+00 0.0000e+00 -1.0000e+00
      -13  1    1    2    0    0 -1.0325740031e+00 -1.8150557021e+01 -3.2807672555e+01 3.7508178732e+01 1.0566000000e-01 0.0000e+00 -1.0000e+00
       13  1    1    2    0    0 +3.9859757413e+01 +9.4008330336e+01 -2.6287290889e+02 2.8200805631e+02 1.0566000000e-01 0.0000e+00 1.0000e+00
    10002  1    1    2    0    0 -1.0237427423e+02 -2.1169664915e+01 -3.4226459239e+00 1.4470784789e+02 1.0000000000e+02 0.0000e+00 0.0000e+00
   -10002  1    1    2    0    0 +6.3547090818e+01 -5.4688108400e+01 -2.4637660932e+02 2.7880182132e+02 1.0000000000e+02 0.0000e+00 0.0000e+00
<mgrwt>
<rscale>  0 0.50451882E+03</rscale>
<asrwt>0</asrwt>
<pdfrwt beam="1">  1        4 0.16106321E+00 0.50451882E+03</pdfrwt>
<pdfrwt beam="2">  1       -4 0.24693260E-01 0.50451882E+03</pdfrwt>
<totfact> 0.75404201E+00</totfact>
</mgrwt>
</event>
<event>
 6      1 +2.6141198e-09 4.33833700e+02 7.81860800e-03 1.03265600e-01
        4 -1    0    0  501    0 +0.0000000000e+00 +0.0000000000e+00 +3.2526084370e+02 3.2526332309e+02 1.2700000000e+00 0.0000e+00 -1.0000e+00
       -4 -1    0    0    0  501 -0.0000000000e+00 -0.0000000000e+00 -1.4465630998e+02 1.4466188481e+02 1.2700000000e+00 0.0000e+00 -1.0000e+00
      -13  1    1    2    0    0 +7.4022568224e+00 -1.0923663542e+01 +5.7047795639e+01 5.8554094498e+01 1.0566000000e-01 0.0000e+00 1.0000e+00
       13  1    1    2    0    0 -2.7452804161e+00 +5.7983126505e+01 -1.7462198507e+01 6.0617811447e+01 1.0566000000e-01 0.0000e+00 -1.0000e+00
    10002  1    1    2    0    0 -1.1631837659e+02 -2.4874462880e+01 +1.9698067005e+01 1.5664200420e+02 1.0000000000e+02 0.0000e+00 0.0000e+00
   -10002  1    1    2    0    0 +1.1166140018e+02 -2.2185000083e+01 +1.2132086958e+02 1.9411129775e+02 1.0000000000e+02 0.0000e+00 0.0000e+00
<mgrwt>
<rscale>  0 0.43383373E+03</rscale>
<asrwt>0</asrwt>
<pdfrwt beam="1">  1        4 0.81316217E-01 0.43383373E+03</pdfrwt>
<pdfrwt beam="2">  1       -4 0.36165085E-01 0.43383373E+03</pdfrwt>
<totfact> 0.19229627E+01</totfact>
</mgrwt>
</event>
<event>
 6      1 +2.6141198e-09 4.18353100e+02 7.81860800e-03 1.03760400e-01
        4 -1    0    0  501    0 +0.0000000000e+00 +0.0000000000e+00 +2.3700028673e+02 2.3700368944e+02 1.2700000000e+00 0.0000e+00 -1.0000e+00
       -4 -1    0    0    0  501 -0.0000000000e+00 -0.0000000000e+00 -1.8461238990e+02 1.8461675819e+02 1.2700000000e+00 0.0000e+00 -1.0000e+00
      -13  1    1    2    0    0 -2.7338844978e+01 +1.6051916147e+01 +3.2198253894e+00 3.1866203041e+01 1.0566000000e-01 0.0000e+00 -1.0000e+00
       13  1    1    2    0    0 +6.2830109356e+01 +5.5432762285e+00 -6.0917585990e+01 8.7688733597e+01 1.0566000000e-01 0.0000e+00 1.0000e+00
    10002  1    1    2    0    0 -2.1704273674e+01 +2.9276390425e+01 +1.4847680634e+02 1.8268427560e+02 1.0000000000e+02 0.0000e+00 0.0000e+00
   -10002  1    1    2    0    0 -1.3786990703e+01 -5.0871582800e+01 -3.8391148909e+01 1.1938123539e+02 1.0000000000e+02 0.0000e+00 0.0000e+00
<mgrwt>
<rscale>  0 0.41835309E+03</rscale>
<asrwt>0</asrwt>
<pdfrwt beam="1">  1        4 0.59251043E-01 0.41835309E+03</pdfrwt>
<pdfrwt beam="2">  1       -4 0.46154069E-01 0.41835309E+03</pdfrwt>
<totfact> 0.23566146E+01</totfact>
</mgrwt>
</event>
<event>
 6      1 +2.6141198e-09 5.81765100e+02 7.81860800e-03 9.94397700e-02
       -4 -1    0    0    0  501 -0.0000000000e+00 +0.0000000000e+00 +1.1183936212e+02 1.1184657268e+02 1.2700000000e+00 0.0000e+00 -1.0000e+00
        4 -1    0    0  501    0 +0.0000000000e+00 -0.0000000000e+00 -7.5652304173e+02 7.5652410772e+02 1.2700000000e+00 0.0000e+00 -1.0000e+00
      -13  1    1    2    0    0 -1.2529793145e+01 -3.3722495278e+01 -3.1712770661e+00 3.6114686297e+01 1.0566000000e-01 0.0000e+00 1.0000e+00
       13  1    1    2    0    0 -1.8667950365e+01 +5.1453203664e+01 -1.6196258353e+02 1.7096144058e+02 1.0566000000e-01 0.0000e+00 -1.0000e+00
    10002  1    1    2    0    0 +3.8575770664e+01 +5.2801641430e+01 +4.1140301196e+01 1.2636703606e+02 1.0000000000e+02 0.0000e+00 0.0000e+00
   -10002  1    1    2    0    0 -7.3780271543e+00 -7.0532349816e+01 -5.2069012021e+02 5.3492751746e+02 1.0000000000e+02 0.0000e+00 0.0000e+00
<mgrwt>
<rscale>  0 0.58176507E+03</rscale>
<asrwt>0</asrwt>
<pdfrwt beam="1">  1        4 0.18913178E+00 0.58176507E+03</pdfrwt>
<pdfrwt beam="2">  1       -4 0.27960877E-01 0.58176507E+03</pdfrwt>
<totfact> 0.38046097E+00</totfact>
</mgrwt>
</event>
<event>
 6      1 +2.6141198e-09 6.58405900e+02 7.81860800e-03 9.79113300e-02
        4 -1    0    0  501    0 +0.0000000000e+00 +0.0000000000e+00 +1.0645518653e+03 1.0645526228e+03 1.2700000000e+00 0.0000e+00 -1.0000e+00
       -4 -1    0    0    0  501 -0.0000000000e+00 -0.0000000000e+00 -1.0179824703e+02 1.0180616876e+02 1.2700000000e+00 0.0000e+00 -1.0000e+00
      -13  1    1    2    0    0 +9.9479504148e+01 +1.2663637993e+00 +6.4302798218e+01 1.1845942953e+02 1.0566000000e-01 0.0000e+00 -1.0000e+00
       13  1    1    2    0    0 +4.0017551055e+01 +2.0423606118e+01 +1.5745888459e+02 1.6374321232e+02 1.0566000000e-01 0.0000e+00 1.0000e+00
    10002  1    1    2    0    0 -1.9492047105e+02 -6.2806288179e+01 +1.3242944628e+02 2.6358334187e+02 1.0000000000e+02 0.0000e+00 0.0000e+00
   -10002  1    1    2    0    0 +5.5423415848e+01 +4.1116318262e+01 +6.0856248915e+02 6.2057280786e+02 1.0000000000e+02 0.0000e+00 0.0000e+00
<mgrwt>
<rscale>  0 0.65840588E+03</rscale>
<asrwt>0</asrwt>
<pdfrwt beam="1">  1        4 0.26613904E+00 0.65840588E+03</pdfrwt>
<pdfrwt beam="2">  1       -4 0.25450648E-01 0.65840588E+03</pdfrwt>
<totfact> 0.14961477E+00</totfact>
</mgrwt>
</event>
<event>
 6      1 +2.6141198e-09 4.26513400e+02 7.81860800e-03 1.03496700e-01
        4 -1    0    0  501    0 +0.0000000000e+00 +0.0000000000e+00 +7.8840678612e+02 7.8840780901e+02 1.2700000000e+00 0.0000e+00 -1.0000e+00
       -4 -1    0    0    0  501 -0.0000000000e+00 -0.0000000000e+00 -5.7675904035e+01 5.7689884783e+01 1.2700000000e+00 0.0000e+00 -1.0000e+00
      -13  1    1    2    0    0 +4.6643010288e+01 +3.0878506399e+01 +1.5061523179e+02 1.6066739488e+02 1.0566000000e-01 0.0000e+00 1.0000e+00
       13  1    1    2    0    0 +1.9414036964e+01 -5.6862213165e+01 +5.3589386687e+01 8.0511177154e+01 1.0566000000e-01 0.0000e+00 -1.0000e+00
    10002  1    1    2    0    0 -1.2467833183e+02 +4.7944357239e+01 +2.1747143677e+02 2.7411160798e+02 1.0000000000e+02 0.0000e+00 0.0000e+00
   -10002  1    1    2    0    0 +5.8621284583e+01 -2.1960650474e+01 +3.0905482684e+02 3.3080751378e+02 1.0000000000e+02 0.0000e+00 0.0000e+00
<mgrwt>
<rscale>  0 0.42651341E+03</rscale>
<asrwt>0</asrwt>
<pdfrwt beam="1">  1        4 0.19710357E+00 0.42651341E+03</pdfrwt>
<pdfrwt beam="2">  1       -4 0.14420851E-01 0.42651341E+03</pdfrwt>
<totfact> 0.11334569E+01</totfact>
</mgrwt>
</event>
<event>
 6      1 +2.6141198e-09 4.47557400e+02 7.81860800e-03 1.02845300e-01
        4 -1    0    0  501    0 +0.0000000000e+00 +0.0000000000e+00 +4.0419226119e+01 4.0439173335e+01 1.2700000000e+00 0.0000e+00 -1.0000e+00
       -4 -1    0    0    0  501 -0.0000000000e+00 -0.0000000000e+00 -1.2386117637e+03 1.2386124148e+03 1.2700000000e+00 0.0000e+00 -1.0000e+00
      -13  1    1    2    0    0 -8.5654991704e+01 +1.3082985509e+01 -1.6739838580e+02 1.8849449023e+02 1.0566000000e-01 0.0000e+00 1.0000e+00
       13  1    1    2    0    0 +2.1537432907e+01 +2.0615128799e+01 -4.9847139913e+01 5.8082640033e+01 1.0566000000e-01 0.0000e+00 -1.0000e+00
    10002  1    1    2    0    0 -2.0600449232e+01 +9.2499976061e+01 -4.8581144848e+02 5.0496869958e+02 1.0000000000e+02 0.0000e+00 0.0000e+00
   -10002  1    1    2    0    0 +8.4718008029e+01 -1.2619809037e+02 -4.9513556342e+02 5.2750575832e+02 1.0000000000e+02 0.0000e+00 0.0000e+00
<mgrwt>
<rscale>  0 0.44755738E+03</rscale>
<asrwt>0</asrwt>
<pdfrwt beam="1">  1        4 0.10107385E-01 0.44755738E+03</pdfrwt>
<pdfrwt beam="2">  1       -4 0.30965539E+00 0.44755738E+03</pdfrwt>
<totfact> 0.43371541E+00</totfact>
</mgrwt>
</event>
<event>
 6      1 +2.6141198e-09 4.09511600e+02 7.81860800e-03 1.04053500e-01
        4 -1    0    0  501    0 +0.0000000000e+00 +0.0000000000e+00 +3.4962683990e+01 3.4985742408e+01 1.2700000000e+00 0.0000e+00 -1.0000e+00
       -4 -1    0    0    0  501 -0.0000000000e+00 -0.0000000000e+00 -1.1987152979e+03 1.1987159707e+03 1.2700000000e+00 0.0000e+00 -1.0000e+00
      -13  1    1    2    0    0 +1.0107768051e+01 -3.9372491976e+01 -2.1030631803e+02 2.1419878307e+02 1.0566000000e-01 0.0000e+00 -1.0000e+00
       13  1    1    2    0    0 -9.7598567832e+01 -4.7837109837e+01 -3.7425332267e+02 3.8971711563e+02 1.0566000000e-01 0.0000e+00 1.0000e+00
    10002  1    1    2    0    0 +2.7286543686e+01 +4.6884237070e+00 -2.2206335655e+02 2.4510950839e+02 1.0000000000e+02 0.0000e+00 0.0000e+00
   -10002  1    1    2    0    0 +6.0204256095e+01 +8.2521178106e+01 -3.5712961667e+02 3.8467630599e+02 1.0000000000e+02 0.0000e+00 0.0000e+00
<mgrwt>
<rscale>  0 0.40951162E+03</rscale>
<asrwt>0</asrwt>
<pdfrwt beam="1">  1        4 0.87436414E-02 0.40951162E+03</pdfrwt>
<pdfrwt beam="2">  1       -4 0.29968165E+00 0.40951162E+03</pdfrwt>
<totfact> 0.63861901E+00</totfact>
</mgrwt>
</event>
<event>
 6      1 +2.6141198e-09 6.03751700e+02 7.81860800e-03 9.89765300e-02
        4 -1    0    0  501    0 +0.0000000000e+00 +0.0000000000e+00 +1.1172374688e+03 1.1172381907e+03 1.2700000000e+00 0.0000e+00 1.0000e+00
       -4 -1    0    0    0  501 -0.0000000000e+00 -0.0000000000e+00 -8.1560696064e+01 8.1570583193e+01 1.2700000000e+00 0.0000e+00 1.0000e+00
      -13  1    1    2    0    0 -1.9149090012e+01 +4.1877381474e+01 +1.7924414268e+02 1.8506452003e+02 1.0566000000e-01 0.0000e+00 1.0000e+00
       13  1    1    2    0    0 +4.3383089159e+01 -1.5300100567e+01 +4.6172959748e+01 6.5177748337e+01 1.0566000000e-01 0.0000e+00 -1.0000e+00
    10002  1    1    2    0    0 +9.6470081037e+00 +2.0790886818e+02 +3.1558504288e+02 3.9104102282e+02 1.0000000000e+02 0.0000e+00 0.0000e+00
   -10002  1    1    2    0    0 -3.3881007251e+01 -2.3448614909e+02 +4.9467462746e+02 5.5752548266e+02 1.0000000000e+02 0.0000e+00 0.0000e+00
<mgrwt>
<rscale>  0 0.60375169E+03</rscale>
<asrwt>0</asrwt>
<pdfrwt beam="1">  1        4 0.27931069E+00 0.60375169E+03</pdfrwt>
<pdfrwt beam="2">  1       -4 0.20391500E-01 0.60375169E+03</pdfrwt>
<totfact> 0.18896533E+00</totfact>
</mgrwt>
</event>
<event>
 6      1 +2.6141198e-09 6.29248000e+02 7.81860800e-03 9.84651700e-02
       -4 -1    0    0    0  501 -0.0000000000e+00 +0.0000000000e+00 +4.0225940855e+02 4.0226141334e+02 1.2700000000e+00 0.0000e+00 -1.0000e+00
        4 -1    0    0  501    0 +0.0000000000e+00 -0.0000000000e+00 -2.4607642146e+02 2.4607969867e+02 1.2700000000e+00 0.0000e+00 -1.0000e+00
      -13  1    1    2    0    0 +1.1053584797e+01 -5.4265728249e+00 -1.1173915489e+01 1.6628198365e+01 1.0566000000e-01 0.0000e+00 1.0000e+00
       13  1    1    2    0    0 +1.4831914784e+02 -3.9759228761e+00 +1.5789583582e+02 2.1666906496e+02 1.0566000000e-01 0.0000e+00 -1.0000e+00
    10002  1    1    2    0    0 -2.4810710002e+02 +1.1228375095e+01 -4.3468810278e+01 2.7124296665e+02 1.0000000000e+02 0.0000e+00 0.0000e+00
   -10002  1    1    2    0    0 +8.8734367390e+01 -1.8258793937e+00 +5.2929877039e+01 1.4380088204e+02 1.0000000000e+02 0.0000e+00 0.0000e+00
<mgrwt>
<rscale>  0 0.62924802E+03</rscale>
<asrwt>0</asrwt>
<pdfrwt beam="1">  1        4 0.61519766E-01 0.62924802E+03</pdfrwt>
<pdfrwt beam="2">  1       -4 0.10056551E+00 0.62924802E+03</pdfrwt>
<totfact> 0.39692071E+00</totfact>
</mgrwt>
</event>
<event>
 6      1 +2.6141198e-09 4.75974800e+02 7.81860800e-03 1.02024700e-01
        4 -1    0    0  501    0 +0.0000000000e+00 +0.0000000000e+00 +2.9485872072e+02 2.9486145575e+02 1.2700000000e+00 0.0000e+00 1.0000e+00
       -4 -1    0    0    0  501 -0.0000000000e+00 -0.0000000000e+00 -1.9207952949e+02 1.9208372797e+02 1.2700000000e+00 0.0000e+00 1.0000e+00
      -13  1    1    2    0    0 +1.0991380910e+01 -2.7683301702e+01 -2.0008312344e+01 3.5882020209e+01 1.0566000000e-01 0.0000e+00 1.0000e+00
       13  1    1    2    0    0 +2.0363603803e+00 +6.6590768215e+01 +2.2398601581e+01 7.0286454541e+01 1.0566000000e-01 0.0000e+00 -1.0000e+00
    10002  1    1    2    0    0 +1.4450075000e+02 -1.0010209670e+01 +2.6388442519e+01 1.7798039484e+02 1.0000000000e+02 0.0000e+00 0.0000e+00
   -10002  1    1    2    0    0 -1.5752849129e+02 -2.8897256844e+01 +7.4000459477e+01 2.0279631413e+02 1.0000000000e+02 0.0000e+00 0.0000e+00
<mgrwt>
<rscale>  0 0.47597484E+03</rscale>
<asrwt>0</asrwt>
<pdfrwt beam="1">  1        4 0.73715546E-01 0.47597484E+03</pdfrwt>
<pdfrwt beam="2">  1       -4 0.48020749E-01 0.47597484E+03</pdfrwt>
<totfact> 0.13582880E+01</totfact>
</mgrwt>
</event>
<event>
 6      1 +2.6141198e-09 4.33448400e+02 7.81860800e-03 1.03277600e-01
       -4 -1    0    0    0  501 -0.0000000000e+00 +0.0000000000e+00 +2.7181958240e+02 2.7182254924e+02 1.2700000000e+00 0.0000e+00 1.0000e+00
        4 -1    0    0  501    0 +0.0000000000e+00 -0.0000000000e+00 -1.7278988632e+02 1.7279455349e+02 1.2700000000e+00 0.0000e+00 1.0000e+00
      -13  1    1    2    0    0 -5.3907857653e+01 -1.7503572564e+01 +2.6684685641e+01 6.2645955823e+01 1.0566000000e-01 0.0000e+00 -1.0000e+00
       13  1    1    2    0    0 +3.1956552927e+01 +3.6463684209e+01 -2.4972474080e+00 4.8549654476e+01 1.0566000000e-01 0.0000e+00 1.0000e+00
    10002  1    1    2    0    0 -8.0397975750e+01 +2.2111222573e+01 -4.9660253421e+01 1.3935164670e+02 1.0000000000e+02 0.0000e+00 0.0000e+00
   -10002  1    1    2    0    0 +1.0234928048e+02 -4.1071334217e+01 +1.2450251127e+02 1.9406984573e+02 1.0000000000e+02 0.0000e+00 0.0000e+00
<mgrwt>
<rscale>  0 0.43344837E+03</rscale>
<asrwt>0</asrwt>
<pdfrwt beam="1">  1        4 0.43198426E-01 0.43344837E+03</pdfrwt>
<pdfrwt beam="2">  1       -4 0.67955849E-01 0.43344837E+03</pdfrwt>
<totfact> 0.20092299E+01</totfact>
</mgrwt>
</event>
<event>
 6      1 +2.6141198e-09 3.68359700e+02 7.81860800e-03 1.05532200e-01
        4 -1    0    0  501    0 +0.0000000000e+00 +0.0000000000e+00 +1.9017228689e+02 1.9017652747e+02 1.2700000000e+00 0.0000e+00 1.0000e+00
       -4 -1    0    0    0  501 -0.0000000000e+00 -0.0000000000e+00 -1.7836773229e+02 1.7837225351e+02 1.2700000000e+00 0.0000e+00 1.0000e+00
      -13  1    1    2    0    0 -1.2885192964e+01 -3.7272829138e+01 -2.8955742748e+00 3.9543488770e+01 1.0566000000e-01 0.0000e+00 1.0000e+00
       13  1    1    2    0    0 +3.1328693597e+01 +3.6284942932e+01 -4.3218899107e+01 6.4544314468e+01 1.0566000000e-01 0.0000e+00 -1.0000e+00
    10002  1    1    2    0    0 +6.8254035547e+01 +1.7824906266e+01 +1.0337473840e+01 1.2281369638e+02 1.0000000000e+02 0.0000e+00 0.0000e+00
   -10002  1    1    2    0    0 -8.6697536180e+01 -1.6837020061e+01 +4.7581554141e+01 1.4164728137e+02 1.0000000000e+02 0.0000e+00 0.0000e+00
<mgrwt>
<rscale>  0 0.36835968E+03</rscale>
<asrwt>0</asrwt>
<pdfrwt beam="1">  1        4 0.47544167E-01 0.36835968E+03</pdfrwt>
<pdfrwt beam="2">  1       -4 0.44593028E-01 0.36835968E+03</pdfrwt>
<totfact> 0.39735698E+01</totfact>
</mgrwt>
</event>
<event>
 6      1 +2.6141198e-09 5.51662300e+02 7.81860800e-03 1.00111000e-01
        4 -1    0    0  501    0 +0.0000000000e+00 +0.0000000000e+00 +3.6772977963e+02 3.6773197267e+02 1.2700000000e+00 0.0000e+00 -1.0000e+00
       -4 -1    0    0    0  501 -0.0000000000e+00 -0.0000000000e+00 -2.0689398220e+02 2.0689788005e+02 1.2700000000e+00 0.0000e+00 -1.0000e+00
      -13  1    1    2    0    0 +3.1790592635e+01 -3.7837037409e+00 -5.9392235696e+01 6.7471527470e+01 1.0566000000e-01 0.0000e+00 -1.0000e+00
       13  1    1    2    0    0 -4.3342463004e+01 -4.3593584309e+01 +4.1066864409e+01 7.3928804999e+01 1.0566000000e-01 0.0000e+00 1.0000e+00
    10002  1    1    2    0    0 -9.6079018845e+00 -1.4365556289e+02 +5.6075242500e+01 1.8404799740e+02 1.0000000000e+02 0.0000e+00 0.0000e+00
   -10002  1    1    2    0    0 +2.1159772254e+01 +1.9103285094e+02 +1.2308592621e+02 2.4918152285e+02 1.0000000000e+02 0.0000e+00 0.0000e+00
<mgrwt>
<rscale>  0 0.55166232E+03</rscale>
<asrwt>0</asrwt>
<pdfrwt beam="1">  1        4 0.91933206E-01 0.55166232E+03</pdfrwt>
<pdfrwt beam="2">  1       -4 0.51724257E-01 0.55166232E+03</pdfrwt>
<totfact> 0.70755349E+00</totfact>
</mgrwt>
</event>
<event>
 6      1 +2.6141198e-09 4.15411100e+02 7.81860800e-03 1.03857000e-01
       -4 -1    0    0    0  501 -0.0000000000e+00 +0.0000000000e+00 +4.9737309064e+01 4.9753520609e+01 1.2700000000e+00 0.0000e+00 -1.0000e+00
        4 -1    0    0  501    0 +0.0000000000e+00 -0.0000000000e+00 -8.6723090907e+02 8.6723183898e+02 1.2700000000e+00 0.0000e+00 -1.0000e+00
      -13  1    1    2    0    0 +4.0888794138e+01 -2.4561940793e+01 -8.2722152031e+01 9.5488994246e+01 1.0566000000e-01 0.0000e+00 1.0000e+00
       13  1    1    2    0    0 +3.8420445058e+01 +6.7742112777e+01 -1.3675925771e+02 1.5737925586e+02 1.0566000000e-01 0.0000e+00 -1.0000e+00
    10002  1    1    2    0    0 +4.1143291748e+01 +2.2275056265e+01 -3.1892313125e+02 3.3749209211e+02 1.0000000000e+02 0.0000e+00 0.0000e+00
   -10002  1    1    2    0    0 -1.2045253094e+02 -6.5455228249e+01 -2.7908905901e+02 3.2662501737e+02 1.0000000000e+02 0.0000e+00 0.0000e+00
<mgrwt>
<rscale>  0 0.41541108E+03</rscale>
<asrwt>0</asrwt>
<pdfrwt beam="1">  1        4 0.21680982E+00 0.41541108E+03</pdfrwt>
<pdfrwt beam="2">  1       -4 0.12436473E-01 0.41541108E+03</pdfrwt>
<totfact> 0.11015464E+01</totfact>
</mgrwt>
</event>
<event>
 6      1 +2.6141198e-09 3.77575100e+02 7.81860800e-03 1.05183400e-01
       -4 -1    0    0    0  501 -0.0000000000e+00 +0.0000000000e+00 +4.9336331906e+01 4.9352675165e+01 1.2700000000e+00 0.0000e+00 1.0000e+00
        4 -1    0    0  501    0 +0.0000000000e+00 -0.0000000000e+00 -7.2226679030e+02 7.2226790686e+02 1.2700000000e+00 0.0000e+00 1.0000e+00
      -13  1    1    2    0    0 -5.4539830259e+01 +9.5765579395e+00 -1.2781028653e+02 1.3929028701e+02 1.0566000000e-01 0.0000e+00 1.0000e+00
       13  1    1    2    0    0 +2.9561788349e+01 -7.7705716233e+00 -1.5186379587e+01 3.4130900995e+01 1.0566000000e-01 0.0000e+00 -1.0000e+00
    10002  1    1    2    0    0 +7.4634639026e+01 -1.4111148064e+01 -4.2963268555e+02 4.4760886758e+02 1.0000000000e+02 0.0000e+00 0.0000e+00
   -10002  1    1    2    0    0 -4.9656597116e+01 +1.2305161748e+01 -1.0030110672e+02 1.5059052644e+02 1.0000000000e+02 0.0000e+00 0.0000e+00
<mgrwt>
<rscale>  0 0.37757505E+03</rscale>
<asrwt>0</asrwt>
<pdfrwt beam="1">  1        4 0.18056885E+00 0.37757505E+03</pdfrwt>
<pdfrwt beam="2">  1       -4 0.12336268E-01 0.37757505E+03</pdfrwt>
<totfact> 0.19093061E+01</totfact>
</mgrwt>
</event>
<event>
 6      1 +2.6141198e-09 4.77482900e+02 7.81860800e-03 1.01982900e-01
        4 -1    0    0  501    0 +0.0000000000e+00 +0.0000000000e+00 +1.7937107381e+02 1.7937556974e+02 1.2700000000e+00 0.0000e+00 1.0000e+00
       -4 -1    0    0    0  501 -0.0000000000e+00 -0.0000000000e+00 -3.1775316709e+02 3.1775570506e+02 1.2700000000e+00 0.0000e+00 1.0000e+00
      -13  1    1    2    0    0 -2.2818086127e+01 -2.0129066017e+01 -1.4900331909e+01 3.3880310037e+01 1.0566000000e-01 0.0000e+00 1.0000e+00
       13  1    1    2    0    0 -2.9243066272e+01 +3.3168970544e+01 -5.2917698431e+00 4.4534834950e+01 1.0566000000e-01 0.0000e+00 -1.0000e+00
    10002  1    1    2    0    0 +5.8158347444e+01 -6.0477901770e+01 -2.2797496895e+02 2.6270241043e+02 1.0000000000e+02 0.0000e+00 0.0000e+00
   -10002  1    1    2    0    0 -6.0971950448e+00 +4.7437997242e+01 +1.0978497742e+02 1.5601371939e+02 1.0000000000e+02 0.0000e+00 0.0000e+00
<mgrwt>
<rscale>  0 0.47748288E+03</rscale>
<asrwt>0</asrwt>
<pdfrwt beam="1">  1        4 0.44843648E-01 0.47748288E+03</pdfrwt>
<pdfrwt beam="2">  1       -4 0.79439170E-01 0.47748288E+03</pdfrwt>
<totfact> 0.13222669E+01</totfact>
</mgrwt>
</event>
<event>
 6      1 +2.6141198e-09 5.26640200e+02 7.81860800e-03 1.00705000e-01
       -4 -1    0    0    0  501 -0.0000000000e+00 +0.0000000000e+00 +4.3879896643e+02 4.3880080428e+02 1.2700000000e+00 0.0000e+00 1.0000e+00
        4 -1    0    0  501    0 +0.0000000000e+00 -0.0000000000e+00 -1.5801174526e+02 1.5801684892e+02 1.2700000000e+00 0.0000e+00 1.0000e+00
      -13  1    1    2    0    0 -7.9946163017e+01 -4.7481655982e+00 +1.0414664927e+02 1.3137910708e+02 1.0566000000e-01 0.0000e+00 1.0000e+00
       13  1    1    2    0    0 +1.4075403953e+01 -2.6620243127e+01 +1.3417262047e+02 1.3751020904e+02 1.0566000000e-01 0.0000e+00 -1.0000e+00
    10002  1    1    2    0    0 +1.3179495382e+02 +2.6622534627e+01 -5.1845750077e+01 1.7540425025e+02 1.0000000000e+02 0.0000e+00 0.0000e+00
   -10002  1    1    2    0    0 -6.5924194761e+01 +4.7458740986e+00 +9.4313701497e+01 1.5252408684e+02 1.0000000000e+02 0.0000e+00 0.0000e+00
<mgrwt>
<rscale>  0 0.52664015E+03</rscale>
<asrwt>0</asrwt>
<pdfrwt beam="1">  1        4 0.39503804E-01 0.52664015E+03</pdfrwt>
<pdfrwt beam="2">  1       -4 0.10970061E+00 0.52664015E+03</pdfrwt>
<totfact> 0.80663128E+00</totfact>
</mgrwt>
</event>
<event>
 6      1 +2.6141198e-09 3.88620200e+02 7.81860800e-03 1.04779300e-01
        4 -1    0    0  501    0 +0.0000000000e+00 +0.0000000000e+00 +5.3439706207e+01 5.3454794915e+01 1.2700000000e+00 0.0000e+00 -1.0000e+00
       -4 -1    0    0    0  501 -0.0000000000e+00 -0.0000000000e+00 -7.0640825571e+02 7.0640939733e+02 1.2700000000e+00 0.0000e+00 -1.0000e+00
      -13  1    1    2    0    0 -4.4042823513e+01 +5.6672683271e+01 -2.2535079010e+01 7.5229012236e+01 1.0566000000e-01 0.0000e+00 -1.0000e+00
       13  1    1    2    0    0 -2.2733393161e+01 +5.9084410069e+00 -1.1515527612e+02 1.1752644648e+02 1.0566000000e-01 0.0000e+00 1.0000e+00
    10002  1    1    2    0    0 +6.4192334842e+01 -7.9224377686e+00 -3.1347451826e+02 3.3533519718e+02 1.0000000000e+02 0.0000e+00 0.0000e+00
   -10002  1    1    2    0    0 +2.5838818315e+00 -5.4658686509e+01 -2.0180367611e+02 2.3177353634e+02 1.0000000000e+02 0.0000e+00 0.0000e+00
<mgrwt>
<rscale>  0 0.38862021E+03</rscale>
<asrwt>0</asrwt>
<pdfrwt beam="1">  1        4 0.13361958E-01 0.38862021E+03</pdfrwt>
<pdfrwt beam="2">  1       -4 0.17660406E+00 0.38862021E+03</pdfrwt>
<totfact> 0.17693955E+01</totfact>
</mgrwt>
</event>
<event>
 6      1 +2.6141198e-09 3.74196000e+02 7.81860800e-03 1.05310000e-01
       -4 -1    0    0    0  501 -0.0000000000e+00 +0.0000000000e+00 +3.4614498225e+02 3.4614731205e+02 1.2700000000e+00 0.0000e+00 1.0000e+00
        4 -1    0    0  501    0 +0.0000000000e+00 -0.0000000000e+00 -1.0112338541e+02 1.0113136001e+02 1.2700000000e+00 0.0000e+00 1.0000e+00
      -13  1    1    2    0    0 -6.3260540134e+01 -9.4231397953e+00 +1.3718050621e+02 1.5135783412e+02 1.0566000000e-01 0.0000e+00 1.0000e+00
       13  1    1    2    0    0 +8.8242910512e+00 -9.8600936356e+00 -1.1509026562e+01 1.7537343456e+01 1.0566000000e-01 0.0000e+00 -1.0000e+00
    10002  1    1    2    0    0 -4.9876828727e+00 -4.9908882588e+01 +2.8740440785e+01 1.1550665123e+02 1.0000000000e+02 0.0000e+00 0.0000e+00
   -10002  1    1    2    0    0 +5.9423931956e+01 +6.9192116019e+01 +9.0609676409e+01 1.6287684325e+02 1.0000000000e+02 0.0000e+00 0.0000e+00
<mgrwt>
<rscale>  0 0.37419597E+03</rscale>
<asrwt>0</asrwt>
<pdfrwt beam="1">  1        4 0.25282135E-01 0.37419597E+03</pdfrwt>
<pdfrwt beam="2">  1       -4 0.86537532E-01 0.37419597E+03</pdfrwt>
<totfact> 0.32952235E+01</totfact>
</mgrwt>
</event>
<event>
 6      1 +2.6141198e-09 5.25305100e+02 7.81860800e-03 1.00737700e-01
       -4 -1    0    0    0  501 -0.0000000000e+00 +0.0000000000e+00 +7.3736014971e+02 7.3736124341e+02 1.2700000000e+00 0.0000e+00 -1.0000e+00
        4 -1    0    0  501    0 +0.0000000000e+00 -0.0000000000e+00 -9.3553089451e+01 9.3561709293e+01 1.2700000000e+00 0.0000e+00 -1.0000e+00
      -13  1    1    2    0    0 -2.2177466374e+01 -1.5226046195e+01 +8.9260430297e+01 9.3226112642e+01 1.0566000000e-01 0.0000e+00 -1.0000e+00
       13  1    1    2    0    0 +9.4016662182e+01 +3.7040044473e+01 +1.0556821185e+02 1.4613608787e+02 1.0566000000e-01 0.0000e+00 1.0000e+00
    10002  1    1    2    0    0 -1.6129349839e+01 +3.6038899044e+00 +4.6254481877e+02 4.7351964407e+02 1.0000000000e+02 0.0000e+00 0.0000e+00
   -10002  1    1    2    0    0 -5.5709845969e+01 -2.5417888182e+01 -1.3566400659e+01 1.1804110811e+02 1.0000000000e+02 0.0000e+00 0.0000e+00
<mgrwt>
<rscale>  0 0.52530508E+03</rscale>
<asrwt>0</asrwt>
<pdfrwt beam="1">  1        4 0.23389487E-01 0.52530508E+03</pdfrwt>
<pdfrwt beam="2">  1       -4 0.18434125E+00 0.52530508E+03</pdfrwt>
<totfact> 0.57388661E+00</totfact>
</mgrwt>
</event>
<event>
 6      1 +2.6141198e-09 6.66223300e+02 7.81860800e-03 9.77680500e-02
        4 -1    0    0  501    0 +0.0000000000e+00 +0.0000000000e+00 +1.7786433699e+02 1.7786887101e+02 1.2700000000e+00 0.0000e+00 -1.0000e+00
       -4 -1    0    0    0  501 -0.0000000000e+00 -0.0000000000e+00 -6.2385209339e+02 6.2385338608e+02 1.2700000000e+00 0.0000e+00 -1.0000e+00
      -13  1    1    2    0    0 -3.3658114978e+01 -2.6260008177e+01 +1.9895239906e+01 4.7098709837e+01 1.0566000000e-01 0.0000e+00 -1.0000e+00
       13  1    1    2    0    0 -1.5494406194e+02 -5.4970600068e+01 -1.3958125212e+02 2.1566725832e+02 1.0566000000e-01 0.0000e+00 1.0000e+00
    10002  1    1    2    0    0 +4.5934898376e+01 +1.1361196387e+02 +1.0355432795e+01 1.5850844839e+02 1.0000000000e+02 0.0000e+00 0.0000e+00
   -10002  1    1    2    0    0 +1.4266727855e+02 -3.2381355624e+01 -3.3665717698e+02 3.8044784054e+02 1.0000000000e+02 0.0000e+00 0.0000e+00
<mgrwt>
<rscale>  0 0.66622331E+03</rscale>
<asrwt>0</asrwt>
<pdfrwt beam="1">  1        4 0.44466814E-01 0.66622331E+03</pdfrwt>
<pdfrwt beam="2">  1       -4 0.15596375E+00 0.66622331E+03</pdfrwt>
<totfact> 0.26013957E+00</totfact>
</mgrwt>
</event>
<event>
 6      1 +2.6141198e-09 3.48195900e+02 7.81860800e-03 1.06335800e-01
       -4 -1    0    0    0  501 -0.0000000000e+00 +0.0000000000e+00 +2.5834820073e+02 2.5835132227e+02 1.2700000000e+00 0.0000e+00 1.0000e+00
        4 -1    0    0  501    0 +0.0000000000e+00 -0.0000000000e+00 -1.1731535310e+02 1.1732222711e+02 1.2700000000e+00 0.0000e+00 1.0000e+00
      -13  1    1    2    0    0 -7.2010786111e+00 +1.7453237758e+01 -2.6318051186e+01 3.2390153190e+01 1.0566000000e-01 0.0000e+00 1.0000e+00
       13  1    1    2    0    0 -3.9328641368e+01 -2.6881220482e+01 +6.5763718194e+01 8.1204801836e+01 1.0566000000e-01 0.0000e+00 -1.0000e+00
    10002  1    1    2    0    0 +4.6651992440e+01 -5.0041267442e+01 +7.5761792368e+01 1.4289991613e+02 1.0000000000e+02 0.0000e+00 0.0000e+00
   -10002  1    1    2    0    0 -1.2227246084e-01 +5.9469250166e+01 +2.5825388248e+01 1.1917867823e+02 1.0000000000e+02 0.0000e+00 0.0000e+00
<mgrwt>
<rscale>  0 0.34819585E+03</rscale>
<asrwt>0</asrwt>
<pdfrwt beam="1">  1        4 0.29330088E-01 0.34819585E+03</pdfrwt>
<pdfrwt beam="2">  1       -4 0.64588299E-01 0.34819585E+03</pdfrwt>
<totfact> 0.47385106E+01</totfact>
</mgrwt>
</event>
<event>
 6      1 +2.6141198e-09 3.51102500e+02 7.81860800e-03 1.06216300e-01
       -4 -1    0    0    0  501 -0.0000000000e+00 +0.0000000000e+00 +5.8743021375e+02 5.8743158659e+02 1.2700000000e+00 0.0000e+00 1.0000e+00
        4 -1    0    0  501    0 +0.0000000000e+00 -0.0000000000e+00 -5.2453686483e+01 5.2469058746e+01 1.2700000000e+00 0.0000e+00 1.0000e+00
      -13  1    1    2    0    0 +1.3945455245e+01 -6.6144174014e+01 +1.2201035873e+02 1.3948500378e+02 1.0566000000e-01 0.0000e+00 1.0000e+00
       13  1    1    2    0    0 +1.4666588131e+01 +3.3965912631e+01 +4.3371599535e+01 5.7007884003e+01 1.0566000000e-01 0.0000e+00 -1.0000e+00
    10002  1    1    2    0    0 -3.4550908610e+01 +3.4588678504e+01 +3.0375597355e+02 3.2350862961e+02 1.0000000000e+02 0.0000e+00 0.0000e+00
   -10002  1    1    2    0    0 +5.9388652337e+00 -2.4104171204e+00 +6.5838595458e+01 1.1989912795e+02 1.0000000000e+02 0.0000e+00 0.0000e+00
<mgrwt>
<rscale>  0 0.35110248E+03</rscale>
<asrwt>0</asrwt>
<pdfrwt beam="1">  1        4 0.13115515E-01 0.35110248E+03</pdfrwt>
<pdfrwt beam="2">  1       -4 0.14685964E+00 0.35110248E+03</pdfrwt>
<totfact> 0.29829533E+01</totfact>
</mgrwt>
</event>
<event>
 6      1 +2.6141198e-09 5.22690200e+02 7.81860800e-03 1.00802000e-01
       -4 -1    0    0    0  501 -0.0000000000e+00 +0.0000000000e+00 +2.1797547224e+02 2.1797917193e+02 1.2700000000e+00 0.0000e+00 1.0000e+00
        4 -1    0    0  501    0 +0.0000000000e+00 -0.0000000000e+00 -3.1333612176e+02 3.1333869550e+02 1.2700000000e+00 0.0000e+00 1.0000e+00
      -13  1    1    2    0    0 -6.6584587661e+01 +1.5975148027e+01 +8.4877515808e+00 6.8998302584e+01 1.0566000000e-01 0.0000e+00 -1.0000e+00
       13  1    1    2    0    0 +2.5584720705e+01 -6.7115771321e+00 -3.0035271380e+01 4.0021892660e+01 1.0566000000e-01 0.0000e+00 1.0000e+00
    10002  1    1    2    0    0 +1.2915835800e+02 +1.3093777543e+02 +1.4044845802e+01 2.0981858871e+02 1.0000000000e+02 0.0000e+00 0.0000e+00
   -10002  1    1    2    0    0 -8.8158491041e+01 -1.4020134632e+02 -8.7857975524e+01 2.1247908348e+02 1.0000000000e+02 0.0000e+00 0.0000e+00
<mgrwt>
<rscale>  0 0.52269018E+03</rscale>
<asrwt>0</asrwt>
<pdfrwt beam="1">  1        4 0.78334814E-01 0.52269018E+03</pdfrwt>
<pdfrwt beam="2">  1       -4 0.54494653E-01 0.52269018E+03</pdfrwt>
<totfact> 0.91351951E+00</totfact>
</mgrwt>
</event>
<event>
 6      1 +2.6141198e-09 3.90992800e+02 7.81860800e-03 1.04694400e-01
       -4 -1    0    0    0  501 -0.0000000000e+00 +0.0000000000e+00 +4.0434220830e+02 4.0434420277e+02 1.2700000000e+00 0.0000e+00 1.0000e+00
        4 -1    0    0  501    0 +0.0000000000e+00 -0.0000000000e+00 -9.4514554599e+01 9.4523086762e+01 1.2700000000e+00 0.0000e+00 1.0000e+00
      -13  1    1    2    0    0 +7.8186381159e+01 -4.2404817714e+00 +2.1465507249e+01 8.1190338403e+01 1.0566000000e-01 0.0000e+00 1.0000e+00
       13  1    1    2    0    0 -2.9121976271e+01 +3.0285613143e+01 +2.5494813853e+01 4.9145748167e+01 1.0566000000e-01 0.0000e+00 -1.0000e+00
    10002  1    1    2    0    0 -1.1129228302e+01 +2.3017673316e+01 +2.2050695998e+02 2.4346866823e+02 1.0000000000e+02 0.0000e+00 0.0000e+00
   -10002  1    1    2    0    0 -3.7935176586e+01 -4.9062804688e+01 +4.2360372618e+01 1.2506253474e+02 1.0000000000e+02 0.0000e+00 0.0000e+00
<mgrwt>
<rscale>  0 0.39099284E+03</rscale>
<asrwt>0</asrwt>
<pdfrwt beam="1">  1        4 0.23629955E-01 0.39099284E+03</pdfrwt>
<pdfrwt beam="2">  1       -4 0.10108687E+00 0.39099284E+03</pdfrwt>
<totfact> 0.26134891E+01</totfact>
</mgrwt>
</event>
<event>
 6      1 +2.6141198e-09 3.65213100e+02 7.81860800e-03 1.05653900e-01
        4 -1    0    0  501    0 +0.0000000000e+00 +0.0000000000e+00 +1.3889509468e+02 1.3890090074e+02 1.2700000000e+00 0.0000e+00 1.0000e+00
       -4 -1    0    0    0  501 -0.0000000000e+00 -0.0000000000e+00 -2.4006192529e+02 2.4006528461e+02 1.2700000000e+00 0.0000e+00 1.0000e+00
      -13  1    1    2    0    0 -3.7857422286e+01 +6.9421235543e+00 -8.5709254288e+01 9.3954589756e+01 1.0566000000e-01 0.0000e+00 -1.0000e+00
       13  1    1    2    0    0 -6.5502692763e+00 -2.6104266333e+01 +2.1274343026e+01 3.4306669666e+01 1.0566000000e-01 0.0000e+00 1.0000e+00
    10002  1    1    2    0    0 +5.6778354099e+01 +5.7686711303e+01 -5.7383581031e+01 1.4087020099e+02 1.0000000000e+02 0.0000e+00 0.0000e+00
   -10002  1    1    2    0    0 -1.2370662536e+01 -3.8524568525e+01 +2.0651661685e+01 1.0983472494e+02 1.0000000000e+02 0.0000e+00 0.0000e+00
<mgrwt>
<rscale>  0 0.36521315E+03</rscale>
<asrwt>0</asrwt>
<pdfrwt beam="1">  1        4 0.34724920E-01 0.36521315E+03</pdfrwt>
<pdfrwt beam="2">  1       -4 0.60016627E-01 0.36521315E+03</pdfrwt>
<totfact> 0.40160170E+01</totfact>
</mgrwt>
</event>
<event>
 6      1 +2.6141198e-09 3.98923900e+02 7.81860800e-03 1.04415300e-01
       -4 -1    0    0    0  501 -0.0000000000e+00 +0.0000000000e+00 +2.6369656790e+02 2.6369962614e+02 1.2700000000e+00 0.0000e+00 1.0000e+00
        4 -1    0    0  501    0 +0.0000000000e+00 -0.0000000000e+00 -1.5086783664e+02 1.5087318195e+02 1.2700000000e+00 0.0000e+00 1.0000e+00
      -13  1    1    2    0    0 -2.1489580233e+01 +4.0451566956e+01 +1.0132842828e+01 4.6912865992e+01 1.0566000000e-01 0.0000e+00 -1.0000e+00
       13  1    1    2    0    0 +1.0413367983e+01 -5.5426706011e+01 +1.1366476656e+01 5.7530565160e+01 1.0566000000e-01 0.0000e+00 1.0000e+00
    10002  1    1    2    0    0 -2.5259865913e+01 +5.7176001397e+01 -5.0148102585e+01 1.2814830531e+02 1.0000000000e+02 0.0000e+00 0.0000e+00
   -10002  1    1    2    0    0 +3.6336078164e+01 -4.2200862341e+01 +1.4147751437e+02 1.8198107162e+02 1.0000000000e+02 0.0000e+00 0.0000e+00
<mgrwt>
<rscale>  0 0.39892392E+03</rscale>
<asrwt>0</asrwt>
<pdfrwt beam="1">  1        4 0.37718010E-01 0.39892392E+03</pdfrwt>
<pdfrwt beam="2">  1       -4 0.65925192E-01 0.39892392E+03</pdfrwt>
<totfact> 0.28044829E+01</totfact>
</mgrwt>
</event>
<event>
 6      1 +2.6141198e-09 4.94627100e+02 7.81860800e-03 1.01519100e-01
       -4 -1    0    0    0  501 -0.0000000000e+00 +0.0000000000e+00 +4.1122993815e+02 4.1123189922e+02 1.2700000000e+00 0.0000e+00 1.0000e+00
        4 -1    0    0  501    0 +0.0000000000e+00 -0.0000000000e+00 -1.4872928044e+02 1.4873470261e+02 1.2700000000e+00 0.0000e+00 1.0000e+00
      -13  1    1    2    0    0 -6.9174748987e+01 +1.4769652844e+01 +8.5307014826e+01 1.1081780762e+02 1.0566000000e-01 0.0000e+00 -1.0000e+00
       13  1    1    2    0    0 -5.7354580433e+01 -2.3929696849e+01 -1.5744604501e+01 6.4109921408e+01 1.0566000000e-01 0.0000e+00 1.0000e+00
    10002  1    1    2    0    0 +1.0912571890e+01 +7.8216180247e+01 -2.5516966612e+00 1.2744946541e+02 1.0000000000e+02 0.0000e+00 0.0000e+00
   -10002  1    1    2    0    0 +1.1561675753e+02 -6.9056136242e+01 +1.9548994405e+02 2.5758940739e+02 1.0000000000e+02 0.0000e+00 0.0000e+00
<mgrwt>
<rscale>  0 0.49462713E+03</rscale>
<asrwt>0</asrwt>
<pdfrwt beam="1">  1        4 0.37183243E-01 0.49462713E+03</pdfrwt>
<pdfrwt beam="2">  1       -4 0.10280841E+00 0.49462713E+03</pdfrwt>
<totfact> 0.10620887E+01</totfact>
</mgrwt>
</event>
<event>
 6      1 +2.6141198e-09 3.31061400e+02 7.81860800e-03 1.07066800e-01
       -4 -1    0    0    0  501 -0.0000000000e+00 +0.0000000000e+00 +3.4953131549e+01 3.4976196263e+01 1.2700000000e+00 0.0000e+00 1.0000e+00
        4 -1    0    0  501    0 +0.0000000000e+00 -0.0000000000e+00 -7.8363643429e+02 7.8363746341e+02 1.2700000000e+00 0.0000e+00 1.0000e+00
      -13  1    1    2    0    0 -4.1105550475e+01 -4.5718658725e+01 -2.1030283305e+02 2.1910535089e+02 1.0566000000e-01 0.0000e+00 -1.0000e+00
       13  1    1    2    0    0 +8.3780841156e+00 +2.2566038701e+01 -3.8183315814e+01 4.5137513962e+01 1.0566000000e-01 0.0000e+00 1.0000e+00
    10002  1    1    2    0    0 +2.4179863115e+01 +2.7176956885e+01 -3.9433078409e+02 4.0843606605e+02 1.0000000000e+02 0.0000e+00 0.0000e+00
   -10002  1    1    2    0    0 +8.5476032439e+00 -4.0243368615e+00 -1.0586636978e+02 1.4593472876e+02 1.0000000000e+02 0.0000e+00 0.0000e+00
<mgrwt>
<rscale>  0 0.33106138E+03</rscale>
<asrwt>0</asrwt>
<pdfrwt beam="1">  1        4 0.19591206E+00 0.33106138E+03</pdfrwt>
<pdfrwt beam="2">  1       -4 0.87412972E-02 0.33106138E+03</pdfrwt>
<totfact> 0.27119756E+01</totfact>
</mgrwt>
</event>
<event>
 6      1 +2.6141198e-09 4.02751200e+02 7.81860800e-03 1.04283100e-01
        4 -1    0    0  501    0 +0.0000000000e+00 +0.0000000000e+00 +2.9784233523e+01 2.9811297633e+01 1.2700000000e+00 0.0000e+00 -1.0000e+00
       -4 -1    0    0    0  501 -0.0000000000e+00 -0.0000000000e+00 -1.3608845961e+03 1.3608851887e+03 1.2700000000e+00 0.0000e+00 -1.0000e+00
      -13  1    1    2    0    0 -5.0053437521e+01 +4.8800582910e+01 -2.2114639784e+02 2.3193228309e+02 1.0566000000e-01 0.0000e+00 1.0000e+00
       13  1    1    2    0    0 +3.9694335182e+00 -3.9662491499e+01 -9.8653500624e+01 1.0640203938e+02 1.0566000000e-01 0.0000e+00 -1.0000e+00
    10002  1    1    2    0    0 +7.8054180935e+01 -2.2231255626e+01 -2.2726364673e+02 2.6121915897e+02 1.0000000000e+02 0.0000e+00 0.0000e+00
   -10002  1    1    2    0    0 -3.1970176933e+01 +1.3093164215e+01 -7.8403681743e+02 7.9114300493e+02 1.0000000000e+02 0.0000e+00 0.0000e+00
<mgrwt>
<rscale>  0 0.40275122E+03</rscale>
<asrwt>0</asrwt>
<pdfrwt beam="1">  1        4 0.74495200E-02 0.40275122E+03</pdfrwt>
<pdfrwt beam="2">  1       -4 0.34022440E+00 0.40275122E+03</pdfrwt>
<totfact> 0.47297275E+00</totfact>
</mgrwt>
</event>
<event>
 6      1 +2.6141198e-09 3.73971100e+02 7.81860800e-03 1.05318500e-01
       -4 -1    0    0    0  501 -0.0000000000e+00 +0.0000000000e+00 +2.9700740841e+02 2.9701012365e+02 1.2700000000e+00 0.0000e+00 -1.0000e+00
        4 -1    0    0  501    0 +0.0000000000e+00 -0.0000000000e+00 -1.1771294322e+02 1.1771979401e+02 1.2700000000e+00 0.0000e+00 -1.0000e+00
      -13  1    1    2    0    0 +2.8885883759e+01 +3.5452064711e+01 +1.2401790770e+01 4.7382050939e+01 1.0566000000e-01 0.0000e+00 1.0000e+00
       13  1    1    2    0    0 -5.8801928135e+01 -1.9709108661e+01 +7.2229476517e+00 6.2436350417e+01 1.0566000000e-01 0.0000e+00 -1.0000e+00
    10002  1    1    2    0    0 +4.8505076057e+01 -1.5016921535e+01 +1.6893581085e+02 2.0277464961e+02 1.0000000000e+02 0.0000e+00 0.0000e+00
   -10002  1    1    2    0    0 -1.8589031682e+01 -7.2603451485e-01 -9.2660840726e+00 1.0213686670e+02 1.0000000000e+02 0.0000e+00 0.0000e+00
<mgrwt>
<rscale>  0 0.37397112E+03</rscale>
<asrwt>0</asrwt>
<pdfrwt beam="1">  1        4 0.29429432E-01 0.37397112E+03</pdfrwt>
<pdfrwt beam="2">  1       -4 0.74253047E-01 0.37397112E+03</pdfrwt>
<totfact> 0.34873739E+01</totfact>
</mgrwt>
</event>
<event>
 6      1 +2.6141198e-09 3.30836700e+02 7.81860800e-03 1.07076700e-01
        4 -1    0    0  501    0 +0.0000000000e+00 +0.0000000000e+00 +3.7041019915e+01 3.7062785329e+01 1.2700000000e+00 0.0000e+00 1.0000e+00
       -4 -1    0    0    0  501 -0.0000000000e+00 -0.0000000000e+00 -7.3848870842e+02 7.3848980045e+02 1.2700000000e+00 0.0000e+00 1.0000e+00
      -13  1    1    2    0    0 -3.5892851114e+01 +1.4467058342e+01 -2.1974886904e+02 2.2313038598e+02 1.0566000000e-01 0.0000e+00 1.0000e+00
       13  1    1    2    0    0 +8.5528402735e+00 -1.8004282451e+01 +1.9712612287e+00 2.0030034902e+01 1.0566000000e-01 0.0000e+00 -1.0000e+00
    10002  1    1    2    0    0 +5.4973698980e+01 -9.1564353599e+00 -2.9943130538e+02 3.2056989024e+02 1.0000000000e+02 0.0000e+00 0.0000e+00
   -10002  1    1    2    0    0 -2.7633688140e+01 +1.2693659469e+01 -1.8423877532e+02 2.1182227466e+02 1.0000000000e+02 0.0000e+00 0.0000e+00
<mgrwt>
<rscale>  0 0.33083675E+03</rscale>
<asrwt>0</asrwt>
<pdfrwt beam="1">  1        4 0.92631146E-02 0.33083675E+03</pdfrwt>
<pdfrwt beam="2">  1       -4 0.18462499E+00 0.33083675E+03</pdfrwt>
<totfact> 0.29144809E+01</totfact>
</mgrwt>
</event>
<event>
 6      1 +2.6141198e-09 5.31774900e+02 7.81860800e-03 1.00580300e-01
       -4 -1    0    0    0  501 -0.0000000000e+00 +0.0000000000e+00 +1.3559899642e+02 1.3560494360e+02 1.2700000000e+00 0.0000e+00 1.0000e+00
        4 -1    0    0  501    0 +0.0000000000e+00 -0.0000000000e+00 -5.2134359751e+02 5.2134514438e+02 1.2700000000e+00 0.0000e+00 1.0000e+00
      -13  1    1    2    0    0 +7.2613999443e+01 +7.2569996671e+01 -1.7219328965e+01 1.0409473467e+02 1.0566000000e-01 0.0000e+00 -1.0000e+00
       13  1    1    2    0    0 -8.1271845671e+00 -1.5558384091e+01 +8.5807703003e+00 1.9538557457e+01 1.0566000000e-01 0.0000e+00 1.0000e+00
    10002  1    1    2    0    0 -8.8600667394e+01 +9.1814605292e+01 -6.9347512437e+01 1.7632095023e+02 1.0000000000e+02 0.0000e+00 0.0000e+00
   -10002  1    1    2    0    0 +2.4113852519e+01 -1.4882621787e+02 -3.0775853000e+02 3.5699584563e+02 1.0000000000e+02 0.0000e+00 0.0000e+00
<mgrwt>
<rscale>  0 0.53177488E+03</rscale>
<asrwt>0</asrwt>
<pdfrwt beam="1">  1        4 0.13033683E+00 0.53177488E+03</pdfrwt>
<pdfrwt beam="2">  1       -4 0.33900687E-01 0.53177488E+03</pdfrwt>
<totfact> 0.71367430E+00</totfact>
</mgrwt>
</event>
<event>
 6      1 +2.6141198e-09 4.45489300e+02 7.81860800e-03 1.02907600e-01
        4 -1    0    0  501    0 +0.0000000000e+00 +0.0000000000e+00 +9.5457379014e+01 9.5465826913e+01 1.2700000000e+00 0.0000e+00 -1.0000e+00
       -4 -1    0    0    0  501 -0.0000000000e+00 -0.0000000000e+00 -5.1973047357e+02 5.1973202523e+02 1.2700000000e+00 0.0000e+00 -1.0000e+00
      -13  1    1    2    0    0 -8.0001682565e+01 -5.0881081809e+01 -1.7623727160e+02 2.0012181482e+02 1.0566000000e-01 0.0000e+00 -1.0000e+00
       13  1    1    2    0    0 +5.1052094246e+01 +2.3479093046e+01 +8.5452246244e-01 5.6198981395e+01 1.0566000000e-01 0.0000e+00 1.0000e+00
    10002  1    1    2    0    0 +9.0814119621e+01 +3.5560632369e+01 -1.5053724667e+02 2.0536120747e+02 1.0000000000e+02 0.0000e+00 0.0000e+00
   -10002  1    1    2    0    0 -6.1864531303e+01 -8.1586436055e+00 -9.8353098740e+01 1.5351584847e+02 1.0000000000e+02 0.0000e+00 0.0000e+00
<mgrwt>
<rscale>  0 0.44548932E+03</rscale>
<asrwt>0</asrwt>
<pdfrwt beam="1">  1        4 0.23865596E-01 0.44548932E+03</pdfrwt>
<pdfrwt beam="2">  1       -4 0.12993386E+00 0.44548932E+03</pdfrwt>
<totfact> 0.14004468E+01</totfact>
</mgrwt>
</event>
<event>
 6      1 +2.6141198e-09 3.62162300e+02 7.81860800e-03 1.05773100e-01
        4 -1    0    0  501    0 +0.0000000000e+00 +0.0000000000e+00 +1.3623905424e+02 1.3624497349e+02 1.2700000000e+00 0.0000e+00 1.0000e+00
       -4 -1    0    0    0  501 -0.0000000000e+00 -0.0000000000e+00 -2.4066984308e+02 2.4067319391e+02 1.2700000000e+00 0.0000e+00 1.0000e+00
      -13  1    1    2    0    0 +3.4615046057e+01 -1.0901782381e+01 +1.6158163702e+01 3.9725907049e+01 1.0566000000e-01 0.0000e+00 -1.0000e+00
       13  1    1    2    0    0 -2.0277102706e+01 +7.0106432873e+01 -1.9773873434e+01 7.5611441323e+01 1.0566000000e-01 0.0000e+00 1.0000e+00
    10002  1    1    2    0    0 -2.6680082777e+01 -6.5689965357e+01 -1.0371288862e+02 1.6057198271e+02 1.0000000000e+02 0.0000e+00 0.0000e+00
   -10002  1    1    2    0    0 +1.2342139426e+01 +6.4853148649e+00 +2.8978095115e+00 1.0100883632e+02 1.0000000000e+02 0.0000e+00 0.0000e+00
<mgrwt>
<rscale>  0 0.36216228E+03</rscale>
<asrwt>0</asrwt>
<pdfrwt beam="1">  1        4 0.34060923E-01 0.36216228E+03</pdfrwt>
<pdfrwt beam="2">  1       -4 0.60168619E-01 0.36216228E+03</pdfrwt>
<totfact> 0.41454949E+01</totfact>
</mgrwt>
</event>
<event>
 6      1 +2.6141198e-09 6.77633600e+02 7.81860800e-03 9.75626500e-02
        4 -1    0    0  501    0 +0.0000000000e+00 +0.0000000000e+00 +3.3635746585e+02 3.3635986344e+02 1.2700000000e+00 0.0000e+00 1.0000e+00
       -4 -1    0    0    0  501 -0.0000000000e+00 -0.0000000000e+00 -3.4128934885e+02 3.4129171179e+02 1.2700000000e+00 0.0000e+00 1.0000e+00
      -13  1    1    2    0    0 +5.3702011959e+01 -3.0152535439e+01 -3.5690738792e+01 7.1182311577e+01 1.0566000000e-01 0.0000e+00 -1.0000e+00
       13  1    1    2    0    0 -3.5165857100e+01 +1.7907714631e+01 -5.2651640102e+01 6.5799165028e+01 1.0566000000e-01 0.0000e+00 1.0000e+00
    10002  1    1    2    0    0 -9.7558562635e+01 +1.6896466176e+02 +2.0892538500e+02 3.0284739815e+02 1.0000000000e+02 0.0000e+00 0.0000e+00
   -10002  1    1    2    0    0 +7.9022407775e+01 -1.5671984095e+02 -1.2551488910e+02 2.3782270048e+02 1.0000000000e+02 0.0000e+00 0.0000e+00
<mgrwt>
<rscale>  0 0.67763363E+03</rscale>
<asrwt>0</asrwt>
<pdfrwt beam="1">  1        4 0.84089962E-01 0.67763363E+03</pdfrwt>
<pdfrwt beam="2">  1       -4 0.85322932E-01 0.67763363E+03</pdfrwt>
<totfact> 0.29089375E+00</totfact>
</mgrwt>
</event>
<event>
 6      1 +2.6141198e-09 5.03478900e+02 7.81860800e-03 1.01287500e-01
        4 -1    0    0  501    0 +0.0000000000e+00 +0.0000000000e+00 +2.7933540558e+02 2.7933829260e+02 1.2700000000e+00 0.0000e+00 -1.0000e+00
       -4 -1    0    0    0  501 -0.0000000000e+00 -0.0000000000e+00 -2.2686393082e+02 2.2686748557e+02 1.2700000000e+00 0.0000e+00 -1.0000e+00
      -13  1    1    2    0    0 +3.5900365478e+01 +2.8239338428e+01 +2.9495768190e+01 5.4371941123e+01 1.0566000000e-01 0.0000e+00 -1.0000e+00
       13  1    1    2    0    0 +2.9007415397e+01 +7.1313807057e+00 -6.9241970795e+01 7.5410532570e+01 1.0566000000e-01 0.0000e+00 1.0000e+00
    10002  1    1    2    0    0 +1.0065786707e+02 -2.0583932216e+01 +1.1129674496e+02 1.8150115677e+02 1.0000000000e+02 0.0000e+00 0.0000e+00
   -10002  1    1    2    0    0 -1.6556564794e+02 -1.4786786918e+01 -1.9079067597e+01 1.9492214771e+02 1.0000000000e+02 0.0000e+00 0.0000e+00
<mgrwt>
<rscale>  0 0.50347893E+03</rscale>
<asrwt>0</asrwt>
<pdfrwt beam="1">  1        4 0.69834656E-01 0.50347893E+03</pdfrwt>
<pdfrwt beam="2">  1       -4 0.56716788E-01 0.50347893E+03</pdfrwt>
<totfact> 0.10830320E+01</totfact>
</mgrwt>
</event>
<event>
 6      1 +2.6141198e-09 5.25504000e+02 7.81860800e-03 1.00732800e-01
       -4 -1    0    0    0  501 -0.0000000000e+00 +0.0000000000e+00 +4.9964445503e+02 4.9964606907e+02 1.2700000000e+00 0.0000e+00 1.0000e+00
        4 -1    0    0  501    0 +0.0000000000e+00 -0.0000000000e+00 -1.3817070642e+02 1.3817654292e+02 1.2700000000e+00 0.0000e+00 1.0000e+00
      -13  1    1    2    0    0 -2.5500174776e+01 -1.1374741831e+01 -4.5547384993e+01 5.3424892223e+01 1.0566000000e-01 0.0000e+00 1.0000e+00
       13  1    1    2    0    0 -6.7042237239e+01 +7.8810518327e+00 +6.2929622146e+00 6.7796645120e+01 1.0566000000e-01 0.0000e+00 -1.0000e+00
    10002  1    1    2    0    0 +1.6192826340e+02 +4.5322180186e+01 +2.6696591021e+02 3.3097682656e+02 1.0000000000e+02 0.0000e+00 0.0000e+00
   -10002  1    1    2    0    0 -6.9385851388e+01 -4.1828490188e+01 +1.3376226117e+02 1.8562424809e+02 1.0000000000e+02 0.0000e+00 0.0000e+00
<mgrwt>
<rscale>  0 0.52550396E+03</rscale>
<asrwt>0</asrwt>
<pdfrwt beam="1">  1        4 0.34543608E-01 0.52550396E+03</pdfrwt>
<pdfrwt beam="2">  1       -4 0.12491204E+00 0.52550396E+03</pdfrwt>
<totfact> 0.76519565E+00</totfact>
</mgrwt>
</event>
<event>
 6      1 +2.6141198e-09 3.27185600e+02 7.81860800e-03 1.07238900e-01
       -4 -1    0    0    0  501 -0.0000000000e+00 +0.0000000000e+00 +8.2703999231e+02 8.2704096741e+02 1.2700000000e+00 0.0000e+00 1.0000e+00
        4 -1    0    0  501    0 +0.0000000000e+00 -0.0000000000e+00 -3.2346052719e+01 3.2370975062e+01 1.2700000000e+00 0.0000e+00 1.0000e+00
      -13  1    1    2    0    0 +3.2779942989e+01 -1.4134681045e+00 +7.7697464446e+00 3.3717987459e+01 1.0566000000e-01 0.0000e+00 -1.0000e+00
       13  1    1    2    0    0 -2.2624268331e+01 +1.8321419131e+01 +5.2540573401e+01 6.0067086943e+01 1.0566000000e-01 0.0000e+00 1.0000e+00
    10002  1    1    2    0    0 -1.1267455720e+01 -4.4125684015e+01 +4.4066855459e+02 4.5416165245e+02 1.0000000000e+02 0.0000e+00 0.0000e+00
   -10002  1    1    2    0    0 +1.1117810627e+00 +2.7217732988e+01 +2.9371506515e+02 3.1146521562e+02 1.0000000000e+02 0.0000e+00 0.0000e+00
<mgrwt>
<rscale>  0 0.32718562E+03</rscale>
<asrwt>0</asrwt>
<pdfrwt beam="1">  1        4 0.80897502E-02 0.32718562E+03</pdfrwt>
<pdfrwt beam="2">  1       -4 0.20676324E+00 0.32718562E+03</pdfrwt>
<totfact> 0.26333395E+01</totfact>
</mgrwt>
</event>
<event>
 6      1 +2.6141198e-09 6.24452600e+02 7.81860800e-03 9.85593400e-02
       -4 -1    0    0    0  501 -0.0000000000e+00 +0.0000000000e+00 +6.1560650988e+02 6.1560781989e+02 1.2700000000e+00 0.0000e+00 1.0000e+00
        4 -1    0    0  501    0 +0.0000000000e+00 -0.0000000000e+00 -1.5835243091e+02 1.5835752359e+02 1.2700000000e+00 0.0000e+00 1.0000e+00
      -13  1    1    2    0    0 +1.1186311923e+02 +4.9553948212e+01 +3.9266980409e+01 1.2849458410e+02 1.0566000000e-01 0.0000e+00 1.0000e+00
       13  1    1    2    0    0 +2.8315158202e+01 +8.7893636779e+01 +6.4830814052e+01 1.1282767916e+02 1.0566000000e-01 0.0000e+00 -1.0000e+00
    10002  1    1    2    0    0 -1.5491884291e+02 -1.1720601217e+02 +6.7070689181e+01 2.2855103265e+02 1.0000000000e+02 0.0000e+00 0.0000e+00
   -10002  1    1    2    0    0 +1.4740565478e+01 -2.0241572824e+01 +2.8608559532e+02 3.0409204756e+02 1.0000000000e+02 0.0000e+00 0.0000e+00
<mgrwt>
<rscale>  0 0.62445261E+03</rscale>
<asrwt>0</asrwt>
<pdfrwt beam="1">  1        4 0.39588908E-01 0.62445261E+03</pdfrwt>
<pdfrwt beam="2">  1       -4 0.15390243E+00 0.62445261E+03</pdfrwt>
<totfact> 0.34135551E+00</totfact>
</mgrwt>
</event>
<event>
 6      1 +2.6141198e-09 5.00092400e+02 7.81860800e-03 1.01375500e-01
        4 -1    0    0  501    0 +0.0000000000e+00 +0.0000000000e+00 +1.1907458565e+02 1.1908135810e+02 1.2700000000e+00 0.0000e+00 -1.0000e+00
       -4 -1    0    0    0  501 -0.0000000000e+00 -0.0000000000e+00 -5.2505256489e+02 5.2505410083e+02 1.2700000000e+00 0.0000e+00 -1.0000e+00
      -13  1    1    2    0    0 +2.8417463473e+01 +3.9474387518e+01 -3.8553350750e+01 6.2065703236e+01 1.0566000000e-01 0.0000e+00 -1.0000e+00
       13  1    1    2    0    0 -4.9383912868e+01 +2.1721074808e+01 +1.8355403082e+01 5.6986910141e+01 1.0566000000e-01 0.0000e+00 1.0000e+00
    10002  1    1    2    0    0 -2.7795622013e+01 +1.1001541348e+02 -1.4713047847e+02 2.1100560538e+02 1.0000000000e+02 0.0000e+00 0.0000e+00
   -10002  1    1    2    0    0 +4.8762071408e+01 -1.7121087580e+02 -2.3864955310e+02 3.1407724018e+02 1.0000000000e+02 0.0000e+00 0.0000e+00
<mgrwt>
<rscale>  0 0.50009236E+03</rscale>
<asrwt>0</asrwt>
<pdfrwt beam="1">  1        4 0.29769686E-01 0.50009236E+03</pdfrwt>
<pdfrwt beam="2">  1       -4 0.13126417E+00 0.50009236E+03</pdfrwt>
<totfact> 0.90111948E+00</totfact>
</mgrwt>
</event>
<event>
 6      1 +2.6141198e-09 5.06680400e+02 7.81860800e-03 1.01205000e-01
        4 -1    0    0  501    0 +0.0000000000e+00 +0.0000000000e+00 +1.6578183146e+03 1.6578188010e+03 1.2700000000e+00 0.0000e+00 1.0000e+00
       -4 -1    0    0    0  501 -0.0000000000e+00 -0.0000000000e+00 -3.8703386727e+01 3.8724217799e+01 1.2700000000e+00 0.0000e+00 1.0000e+00
      -13  1    1    2    0    0 -3.5659508343e+01 -4.8738034589e+00 +1.2902574585e+02 1.3395151643e+02 1.0566000000e-01 0.0000e+00 1.0000e+00
       13  1    1    2    0    0 -4.6094195768e+00 +4.1948508582e+01 +4.0411611674e+01 5.8429732527e+01 1.0566000000e-01 0.0000e+00 -1.0000e+00
    10002  1    1    2    0    0 -1.2891073786e+02 -1.1123822077e+00 +9.8403016066e+02 9.9746407094e+02 1.0000000000e+02 0.0000e+00 0.0000e+00
   -10002  1    1    2    0    0 +1.6917966578e+02 -3.5962322915e+01 +4.6564740966e+02 5.0669769894e+02 1.0000000000e+02 0.0000e+00 0.0000e+00
<mgrwt>
<rscale>  0 0.50668044E+03</rscale>
<asrwt>0</asrwt>
<pdfrwt beam="1">  1        4 0.41445725E+00 0.50668044E+03</pdfrwt>
<pdfrwt beam="2">  1       -4 0.96785112E-02 0.50668044E+03</pdfrwt>
<totfact> 0.97830632E-01</totfact>
</mgrwt>
</event>
<event>
 6      1 +2.6141198e-09 4.17646800e+02 7.81860800e-03 1.03783500e-01
        4 -1    0    0  501    0 +0.0000000000e+00 +0.0000000000e+00 +3.6233516116e+02 3.6233738686e+02 1.2700000000e+00 0.0000e+00 1.0000e+00
       -4 -1    0    0    0  501 -0.0000000000e+00 -0.0000000000e+00 -1.2034453992e+02 1.2035124091e+02 1.2700000000e+00 0.0000e+00 1.0000e+00
      -13  1    1    2    0    0 -1.4573954426e+01 +6.8636071286e+01 +5.9499651196e+01 9.1997446083e+01 1.0566000000e-01 0.0000e+00 1.0000e+00
       13  1    1    2    0    0 +3.0394846192e+01 -1.8624313672e+01 +1.0993710797e+02 1.1557201481e+02 1.0566000000e-01 0.0000e+00 -1.0000e+00
    10002  1    1    2    0    0 -8.7925845772e+01 -3.6595681808e+01 +5.9683902736e+01 1.5044057474e+02 1.0000000000e+02 0.0000e+00 0.0000e+00
   -10002  1    1    2    0    0 +7.2104954007e+01 -1.3416075807e+01 +1.2869959338e+01 1.2467859213e+02 1.0000000000e+02 0.0000e+00 0.0000e+00
<mgrwt>
<rscale>  0 0.41764680E+03</rscale>
<asrwt>0</asrwt>
<pdfrwt beam="1">  1        4 0.90584906E-01 0.41764680E+03</pdfrwt>
<pdfrwt beam="2">  1       -4 0.30087251E-01 0.41764680E+03</pdfrwt>
<totfact> 0.21460342E+01</totfact>
</mgrwt>
</event>
<event>
 6      1 +2.6141198e-09 4.46148100e+02 7.81860800e-03 1.02887700e-01
        4 -1    0    0  501    0 +0.0000000000e+00 +0.0000000000e+00 +1.9776533151e+02 1.9776940928e+02 1.2700000000e+00 0.0000e+00 -1.0000e+00
       -4 -1    0    0    0  501 -0.0000000000e+00 -0.0000000000e+00 -2.5161333543e+02 2.5161654052e+02 1.2700000000e+00 0.0000e+00 -1.0000e+00
      -13  1    1    2    0    0 +2.6730647818e+01 +5.7793191741e+00 -1.0628707023e+01 2.9341244689e+01 1.0566000000e-01 0.0000e+00 -1.0000e+00
       13  1    1    2    0    0 -3.8280735196e+01 -2.6581696868e+01 +8.8953996699e+01 1.0042323430e+02 1.0566000000e-01 0.0000e+00 1.0000e+00
    10002  1    1    2    0    0 -4.6404830385e+01 +6.6154547692e+01 -1.4617905631e+02 1.9467446922e+02 1.0000000000e+02 0.0000e+00 0.0000e+00
   -10002  1    1    2    0    0 +5.7954917762e+01 -4.5352169998e+01 +1.4005762712e+01 1.2494700159e+02 1.0000000000e+02 0.0000e+00 0.0000e+00
<mgrwt>
<rscale>  0 0.44614810E+03</rscale>
<asrwt>0</asrwt>
<pdfrwt beam="1">  1        4 0.49442243E-01 0.44614810E+03</pdfrwt>
<pdfrwt beam="2">  1       -4 0.62904244E-01 0.44614810E+03</pdfrwt>
<totfact> 0.18047549E+01</totfact>
</mgrwt>
</event>
<event>
 6      1 +2.6141198e-09 3.78268800e+02 7.81860800e-03 1.05157500e-01
        4 -1    0    0  501    0 +0.0000000000e+00 +0.0000000000e+00 +9.3657487006e+01 9.3666097241e+01 1.2700000000e+00 0.0000e+00 1.0000e+00
       -4 -1    0    0    0  501 -0.0000000000e+00 -0.0000000000e+00 -3.8191581217e+02 3.8191792375e+02 1.2700000000e+00 0.0000e+00 1.0000e+00
      -13  1    1    2    0    0 +1.5890465756e+01 -7.0921717718e+00 -2.7859263747e+01 3.2847458698e+01 1.0566000000e-01 0.0000e+00 -1.0000e+00
       13  1    1    2    0    0 +5.6406437890e+01 +5.0822705573e+00 +3.5952717531e+01 6.7082969309e+01 1.0566000000e-01 0.0000e+00 1.0000e+00
    10002  1    1    2    0    0 -2.2819098720e+01 +2.1195413031e+01 -2.0491639797e+02 2.3013189035e+02 1.0000000000e+02 0.0000e+00 0.0000e+00
   -10002  1    1    2    0    0 -4.9477804926e+01 -1.9185511816e+01 -9.1435380981e+01 1.4552170264e+02 1.0000000000e+02 0.0000e+00 0.0000e+00
<mgrwt>
<rscale>  0 0.37826882E+03</rscale>
<asrwt>0</asrwt>
<pdfrwt beam="1">  1        4 0.23415713E-01 0.37826882E+03</pdfrwt>
<pdfrwt beam="2">  1       -4 0.95480289E-01 0.37826882E+03</pdfrwt>
<totfact> 0.30330528E+01</totfact>
</mgrwt>
</event>
<event>
 6      1 +2.6141198e-09 4.08104400e+02 7.81860800e-03 1.04100900e-01
        4 -1    0    0  501    0 +0.0000000000e+00 +0.0000000000e+00 +5.5377670304e+02 5.5377815931e+02 1.2700000000e+00 0.0000e+00 1.0000e+00
       -4 -1    0    0    0  501 -0.0000000000e+00 -0.0000000000e+00 -7.5180958018e+01 7.5191684039e+01 1.2700000000e+00 0.0000e+00 1.0000e+00
      -13  1    1    2    0    0 +4.3062169665e+01 -3.8961867676e+01 +2.0956569513e+01 6.1737885928e+01 1.0566000000e-01 0.0000e+00 1.0000e+00
       13  1    1    2    0    0 -4.9629479307e+01 -2.8562951393e+01 +9.1285047822e+01 1.0775851952e+02 1.0566000000e-01 0.0000e+00 -1.0000e+00
    10002  1    1    2    0    0 -1.7924530036e+01 -5.5385133856e+01 +1.3219193315e+02 1.7568013268e+02 1.0000000000e+02 0.0000e+00 0.0000e+00
   -10002  1    1    2    0    0 +2.4491839678e+01 +1.2290995292e+02 +2.3416219454e+02 2.8379330522e+02 1.0000000000e+02 0.0000e+00 0.0000e+00
<mgrwt>
<rscale>  0 0.40810437E+03</rscale>
<asrwt>0</asrwt>
<pdfrwt beam="1">  1        4 0.13844570E+00 0.40810437E+03</pdfrwt>
<pdfrwt beam="2">  1       -4 0.18796763E-01 0.40810437E+03</pdfrwt>
<totfact> 0.18445640E+01</totfact>
</mgrwt>
</event>
<event>
 6      1 +2.6141198e-09 5.59108300e+02 7.81860800e-03 9.99407400e-02
        4 -1    0    0  501    0 +0.0000000000e+00 +0.0000000000e+00 +9.0463069604e+02 9.0463158751e+02 1.2700000000e+00 0.0000e+00 -1.0000e+00
       -4 -1    0    0    0  501 -0.0000000000e+00 -0.0000000000e+00 -8.6383818784e+01 8.6393153940e+01 1.2700000000e+00 0.0000e+00 -1.0000e+00
      -13  1    1    2    0    0 -4.9220550761e+01 -1.1776594187e+01 +1.3356940760e+02 1.4283608997e+02 1.0566000000e-01 0.0000e+00 1.0000e+00
       13  1    1    2    0    0 +3.6282194977e+01 +7.8421137485e+01 +1.7276821130e+02 1.9317126721e+02 1.0566000000e-01 0.0000e+00 -1.0000e+00
    10002  1    1    2    0    0 -5.1899531614e+01 +1.2909314630e+02 +1.5606157145e+02 2.3176241259e+02 1.0000000000e+02 0.0000e+00 0.0000e+00
   -10002  1    1    2    0    0 +6.4837887397e+01 -1.9573768960e+02 +3.5584768691e+02 4.2325497168e+02 1.0000000000e+02 0.0000e+00 0.0000e+00
<mgrwt>
<rscale>  0 0.55910830E+03</rscale>
<asrwt>0</asrwt>
<pdfrwt beam="1">  1        4 0.22615895E+00 0.55910830E+03</pdfrwt>
<pdfrwt beam="2">  1       -4 0.21597233E-01 0.55910830E+03</pdfrwt>
<totfact> 0.35834169E+00</totfact>
</mgrwt>
</event>
<event>
 6      1 +2.6141198e-09 3.33187200e+02 7.81860800e-03 1.06973500e-01
       -4 -1    0    0    0  501 -0.0000000000e+00 +0.0000000000e+00 +1.1478241627e+02 1.1478944196e+02 1.2700000000e+00 0.0000e+00 1.0000e+00
        4 -1    0    0  501    0 +0.0000000000e+00 -0.0000000000e+00 -2.4177551142e+02 2.4177884693e+02 1.2700000000e+00 0.0000e+00 1.0000e+00
      -13  1    1    2    0    0 +2.1095992055e+01 -3.1450978844e+01 -6.3837768321e+01 7.4225849805e+01 1.0566000000e-01 0.0000e+00 -1.0000e+00
       13  1    1    2    0    0 +2.3683524438e+01 +3.3143088903e+01 +2.0748772055e+01 4.5715384474e+01 1.0566000000e-01 0.0000e+00 1.0000e+00
    10002  1    1    2    0    0 -4.1801464255e+01 -1.5705565673e+01 -7.1408848482e+00 1.0974980384e+02 1.0000000000e+02 0.0000e+00 0.0000e+00
   -10002  1    1    2    0    0 -2.9780522377e+00 +1.4013455615e+01 -7.6763214039e+01 1.2687725077e+02 1.0000000000e+02 0.0000e+00 0.0000e+00
<mgrwt>
<rscale>  0 0.33318718E+03</rscale>
<asrwt>0</asrwt>
<pdfrwt beam="1">  1        4 0.60445172E-01 0.33318718E+03</pdfrwt>
<pdfrwt beam="2">  1       -4 0.28696900E-01 0.33318718E+03</pdfrwt>
<totfact> 0.56754406E+01</totfact>
</mgrwt>
</event>
<event>
 6      1 +2.6141198e-09 4.14788800e+02 7.81860800e-03 1.03877600e-01
        4 -1    0    0  501    0 +0.0000000000e+00 +0.0000000000e+00 +1.6766134337e+02 1.6766615329e+02 1.2700000000e+00 0.0000e+00 1.0000e+00
       -4 -1    0    0    0  501 -0.0000000000e+00 -0.0000000000e+00 -2.5653353878e+02 2.5653668240e+02 1.2700000000e+00 0.0000e+00 1.0000e+00
      -13  1    1    2    0    0 -4.3581712239e+01 +6.3306877874e+00 -1.5905506043e+00 4.4067950540e+01 1.0566000000e-01 0.0000e+00 -1.0000e+00
       13  1    1    2    0    0 +7.2464888374e+01 +6.0045636405e-01 -5.7154881000e+01 9.2294161143e+01 1.0566000000e-01 0.0000e+00 1.0000e+00
    10002  1    1    2    0    0 -1.0458667267e+01 +5.7200484739e+01 -9.6387429561e+01 1.5057162997e+02 1.0000000000e+02 0.0000e+00 0.0000e+00
   -10002  1    1    2    0    0 -1.8424508867e+01 -6.4131628890e+01 +6.6260665758e+01 1.3726909404e+02 1.0000000000e+02 0.0000e+00 0.0000e+00
<mgrwt>
<rscale>  0 0.41478884E+03</rscale>
<asrwt>0</asrwt>
<pdfrwt beam="1">  1        4 0.41916330E-01 0.41478884E+03</pdfrwt>
<pdfrwt beam="2">  1       -4 0.64134378E-01 0.41478884E+03</pdfrwt>
<totfact> 0.24163441E+01</totfact>
</mgrwt>
</event>
<event>
 6      1 +2.6141198e-09 5.86769000e+02 7.81860800e-03 9.93324300e-02
       -4 -1    0    0    0  501 -0.0000000000e+00 +0.0000000000e+00 +3.0466852718e+02 3.0467117414e+02 1.2700000000e+00 0.0000e+00 -1.0000e+00
        4 -1    0    0  501    0 +0.0000000000e+00 -0.0000000000e+00 -2.8251310786e+02 2.8251596241e+02 1.2700000000e+00 0.0000e+00 -1.0000e+00
      -13  1    1    2    0    0 -1.2101298087e+01 +9.4917863596e+01 +3.2958821936e+01 1.0120344536e+02 1.0566000000e-01 0.0000e+00 1.0000e+00
       13  1    1    2    0    0 -8.8590100382e+01 +2.2681370951e+01 -1.1476346569e+01 9.2164896617e+01 1.0566000000e-01 0.0000e+00 -1.0000e+00
    10002  1    1    2    0    0 +1.0335363988e+02 -2.1170435717e+02 -9.4376238874e+00 2.5610501452e+02 1.0000000000e+02 0.0000e+00 0.0000e+00
   -10002  1    1    2    0    0 -2.6622414113e+00 +9.4105122618e+01 +1.0110567834e+01 1.3771378004e+02 1.0000000000e+02 0.0000e+00 0.0000e+00
<mgrwt>
<rscale>  0 0.58676901E+03</rscale>
<asrwt>0</asrwt>
<pdfrwt beam="1">  1        4 0.70628965E-01 0.58676901E+03</pdfrwt>
<pdfrwt beam="2">  1       -4 0.76167819E-01 0.58676901E+03</pdfrwt>
<totfact> 0.55714915E+00</totfact>
</mgrwt>
</event>
<event>
 6      1 +2.6141198e-09 4.17831500e+02 7.81860800e-03 1.03777400e-01
       -4 -1    0    0    0  501 -0.0000000000e+00 +0.0000000000e+00 +1.1701162187e+03 1.1701169079e+03 1.2700000000e+00 0.0000e+00 -1.0000e+00
        4 -1    0    0  501    0 +0.0000000000e+00 -0.0000000000e+00 -3.7288884898e+01 3.7310505718e+01 1.2700000000e+00 0.0000e+00 -1.0000e+00
      -13  1    1    2    0    0 -4.9375565340e+01 -4.6603472630e+00 +7.0225976769e+01 8.5973043837e+01 1.0566000000e-01 0.0000e+00 -1.0000e+00
       13  1    1    2    0    0 +3.5497797806e+01 -3.6503370142e+01 +9.2383823172e+01 1.0548635755e+02 1.0566000000e-01 0.0000e+00 1.0000e+00
    10002  1    1    2    0    0 -7.3849388398e+01 -5.0248190342e+01 +5.4205377722e+02 5.5839135935e+02 1.0000000000e+02 0.0000e+00 0.0000e+00
   -10002  1    1    2    0    0 +8.7727155932e+01 +9.1411907747e+01 +4.2816375662e+02 4.5757665287e+02 1.0000000000e+02 0.0000e+00 0.0000e+00
<mgrwt>
<rscale>  0 0.41783153E+03</rscale>
<asrwt>0</asrwt>
<pdfrwt beam="1">  1        4 0.93250095E-02 0.41783153E+03</pdfrwt>
<pdfrwt beam="2">  1       -4 0.29253186E+00 0.41783153E+03</pdfrwt>
<totfact> 0.63187547E+00</totfact>
</mgrwt>
</event>
<event>
 6      1 +2.6141198e-09 4.87341200e+02 7.81860800e-03 1.01713700e-01
       -4 -1    0    0    0  501 -0.0000000000e+00 +0.0000000000e+00 +9.2345841607e+01 9.2354574126e+01 1.2700000000e+00 0.0000e+00 -1.0000e+00
        4 -1    0    0  501    0 +0.0000000000e+00 -0.0000000000e+00 -6.4292771144e+02 6.4292896578e+02 1.2700000000e+00 0.0000e+00 -1.0000e+00
      -13  1    1    2    0    0 -1.1278950026e+02 -3.8138260583e+01 -5.4234232525e+01 1.3083333456e+02 1.0566000000e-01 0.0000e+00 1.0000e+00
       13  1    1    2    0    0 +1.3744747451e+01 -3.0461592492e+01 -4.7373228756e+01 5.7974655380e+01 1.0566000000e-01 0.0000e+00 -1.0000e+00
    10002  1    1    2    0    0 +1.0870371599e+02 -4.7555163581e+01 -1.8911082800e+02 2.4462399049e+02 1.0000000000e+02 0.0000e+00 0.0000e+00
   -10002  1    1    2    0    0 -9.6589631830e+00 +1.1615501666e+02 -2.5986358055e+02 3.0185155948e+02 1.0000000000e+02 0.0000e+00 0.0000e+00
<mgrwt>
<rscale>  0 0.48734124E+03</rscale>
<asrwt>0</asrwt>
<pdfrwt beam="1">  1        4 0.16073316E+00 0.48734124E+03</pdfrwt>
<pdfrwt beam="2">  1       -4 0.23087711E-01 0.48734124E+03</pdfrwt>
<totfact> 0.85928809E+00</totfact>
</mgrwt>
</event>
<event>
 6      1 +2.6141198e-09 3.97041600e+02 7.81860800e-03 1.04480900e-01
       -4 -1    0    0    0  501 -0.0000000000e+00 +0.0000000000e+00 +8.4132794218e+01 8.4142379113e+01 1.2700000000e+00 0.0000e+00 -1.0000e+00
        4 -1    0    0  501    0 +0.0000000000e+00 -0.0000000000e+00 -4.6839515702e+02 4.6839687875e+02 1.2700000000e+00 0.0000e+00 -1.0000e+00
      -13  1    1    2    0    0 +1.7648875512e+01 +6.1434554712e+00 +1.8912972160e+01 2.6588278093e+01 1.0566000000e-01 0.0000e+00 1.0000e+00
       13  1    1    2    0    0 -4.7290553977e+01 -3.2670356075e+01 -6.6413378560e+01 8.7832207517e+01 1.0566000000e-01 0.0000e+00 -1.0000e+00
    10002  1    1    2    0    0 +4.2145612394e+01 -7.3731292100e+01 -2.1022269873e+02 2.4780262133e+02 1.0000000000e+02 0.0000e+00 0.0000e+00
   -10002  1    1    2    0    0 -1.2503933929e+01 +1.0025819270e+02 -1.2653925768e+02 1.9031615092e+02 1.0000000000e+02 0.0000e+00 0.0000e+00
<mgrwt>
<rscale>  0 0.39704165E+03</rscale>
<asrwt>0</asrwt>
<pdfrwt beam="1">  1        4 0.11710020E+00 0.39704165E+03</pdfrwt>
<pdfrwt beam="2">  1       -4 0.21034613E-01 0.39704165E+03</pdfrwt>
<totfact> 0.22785393E+01</totfact>
</mgrwt>
</event>
<event>
 6      1 +2.6141198e-09 8.43605000e+02 7.81860800e-03 9.49896000e-02
        4 -1    0    0  501    0 +0.0000000000e+00 +0.0000000000e+00 +6.8862750396e+02 6.8862867505e+02 1.2700000000e+00 0.0000e+00 1.0000e+00
       -4 -1    0    0    0  501 -0.0000000000e+00 -0.0000000000e+00 -2.5836222087e+02 2.5836534224e+02 1.2700000000e+00 0.0000e+00 1.0000e+00
      -13  1    1    2    0    0 -3.0394796981e+01 -1.2470297930e+02 +6.5077114454e+01 1.4390871662e+02 1.0566000000e-01 0.0000e+00 -1.0000e+00
       13  1    1    2    0    0 -3.4582252402e+01 -7.7306239187e+01 -3.7355969334e+01 9.2561689740e+01 1.0566000000e-01 0.0000e+00 1.0000e+00
    10002  1    1    2    0    0 -1.8134984504e+02 +1.0151635401e+02 +1.6613582848e+01 2.3123439961e+02 1.0000000000e+02 0.0000e+00 0.0000e+00
   -10002  1    1    2    0    0 +2.4632689442e+02 +1.0049286447e+02 +3.8593055512e+02 4.7928921133e+02 1.0000000000e+02 0.0000e+00 0.0000e+00
<mgrwt>
<rscale>  0 0.84360503E+03</rscale>
<asrwt>0</asrwt>
<pdfrwt beam="1">  1        4 0.17215741E+00 0.84360503E+03</pdfrwt>
<pdfrwt beam="2">  1       -4 0.64591092E-01 0.84360503E+03</pdfrwt>
<totfact> 0.89552914E-01</totfact>
</mgrwt>
</event>
<event>
 6      1 +2.6141198e-09 3.44374000e+02 7.81860800e-03 1.06494800e-01
        4 -1    0    0  501    0 +0.0000000000e+00 +0.0000000000e+00 +1.3010409592e+02 1.3011029427e+02 1.2700000000e+00 0.0000e+00 -1.0000e+00
       -4 -1    0    0    0  501 -0.0000000000e+00 -0.0000000000e+00 -2.2786843916e+02 2.2787197823e+02 1.2700000000e+00 0.0000e+00 -1.0000e+00
      -13  1    1    2    0    0 -6.5200619672e+00 -2.6869245976e+01 -7.5380624358e+01 8.0291452098e+01 1.0566000000e-01 0.0000e+00 -1.0000e+00
       13  1    1    2    0    0 +5.0112987256e+01 +2.5706713325e+01 -9.8290446744e+00 5.7173139541e+01 1.0566000000e-01 0.0000e+00 1.0000e+00
    10002  1    1    2    0    0 -2.1186028888e+00 -3.4946563812e+01 -2.9707725517e+00 1.0599328417e+02 1.0000000000e+02 0.0000e+00 0.0000e+00
   -10002  1    1    2    0    0 -4.1474322400e+01 +3.6109096462e+01 -9.5839016534e+00 1.1452439669e+02 1.0000000000e+02 0.0000e+00 0.0000e+00
<mgrwt>
<rscale>  0 0.34437398E+03</rscale>
<asrwt>0</asrwt>
<pdfrwt beam="1">  1        4 0.32527242E-01 0.34437398E+03</pdfrwt>
<pdfrwt beam="2">  1       -4 0.56968326E-01 0.34437398E+03</pdfrwt>
<totfact> 0.50729851E+01</totfact>
</mgrwt>
</event>
<event>
 6      1 +2.6141198e-09 8.56545700e+02 7.81860800e-03 9.48159300e-02
        4 -1    0    0  501    0 +0.0000000000e+00 +0.0000000000e+00 +7.2180310900e+02 7.2180422627e+02 1.2700000000e+00 0.0000e+00 -1.0000e+00
       -4 -1    0    0    0  501 -0.0000000000e+00 -0.0000000000e+00 -2.5410745480e+02 2.5411062844e+02 1.2700000000e+00 0.0000e+00 -1.0000e+00
      -13  1    1    2    0    0 -1.6151148363e+01 +6.8295759212e+01 +5.1423894894e+00 7.0367788465e+01 1.0566000000e-01 0.0000e+00 -1.0000e+00
       13  1    1    2    0    0 +2.3590532966e+01 +6.9002267383e+00 +7.2577702930e+01 7.6626761000e+01 1.0566000000e-01 0.0000e+00 1.0000e+00
    10002  1    1    2    0    0 +2.7893639337e+02 +1.5089449098e+02 +8.5632863570e+01 3.4337682839e+02 1.0000000000e+02 0.0000e+00 0.0000e+00
   -10002  1    1    2    0    0 -2.8637577797e+02 -2.2609047693e+02 +3.0434269821e+02 4.8554347686e+02 1.0000000000e+02 0.0000e+00 0.0000e+00
<mgrwt>
<rscale>  0 0.85654572E+03</rscale>
<asrwt>0</asrwt>
<pdfrwt beam="1">  1        4 0.18045131E+00 0.85654572E+03</pdfrwt>
<pdfrwt beam="2">  1       -4 0.63527401E-01 0.85654572E+03</pdfrwt>
<totfact> 0.81197665E-01</totfact>
</mgrwt>
</event>
<event>
 6      1 +2.6141198e-09 3.96546500e+02 7.81860800e-03 1.04498200e-01
        4 -1    0    0  501    0 +0.0000000000e+00 +0.0000000000e+00 +3.9819711650e+02 3.9819914175e+02 1.2700000000e+00 0.0000e+00 1.0000e+00
       -4 -1    0    0    0  501 -0.0000000000e+00 -0.0000000000e+00 -9.8719309983e+01 9.8727478767e+01 1.2700000000e+00 0.0000e+00 1.0000e+00
      -13  1    1    2    0    0 -5.6922748157e+01 +4.9671018039e+01 +6.1959983377e+01 9.7705987508e+01 1.0566000000e-01 0.0000e+00 1.0000e+00
       13  1    1    2    0    0 +5.0152099018e+01 +3.4088639137e-01 +6.3021194346e+00 5.0547770602e+01 1.0566000000e-01 0.0000e+00 -1.0000e+00
    10002  1    1    2    0    0 -7.2640789270e+01 -9.7337672429e+00 +8.4479397971e+01 1.5002732808e+02 1.0000000000e+02 0.0000e+00 0.0000e+00
   -10002  1    1    2    0    0 +7.9411438409e+01 -4.0278137187e+01 +1.4673630574e+02 1.9864553432e+02 1.0000000000e+02 0.0000e+00 0.0000e+00
<mgrwt>
<rscale>  0 0.39654648E+03</rscale>
<asrwt>0</asrwt>
<pdfrwt beam="1">  1        4 0.99550553E-01 0.39654648E+03</pdfrwt>
<pdfrwt beam="2">  1       -4 0.24681102E-01 0.39654648E+03</pdfrwt>
<totfact> 0.25004354E+01</totfact>
</mgrwt>
</event>
<event>
 6      1 +2.6141198e-09 4.33034300e+02 7.81860800e-03 1.03290600e-01
       -4 -1    0    0    0  501 -0.0000000000e+00 +0.0000000000e+00 +2.8329315156e+02 2.8329599825e+02 1.2700000000e+00 0.0000e+00 1.0000e+00
        4 -1    0    0  501    0 +0.0000000000e+00 -0.0000000000e+00 -1.6547499667e+02 1.6547987015e+02 1.2700000000e+00 0.0000e+00 1.0000e+00
      -13  1    1    2    0    0 -4.8399839076e+01 +6.4567603524e+01 +2.2116959520e+01 8.3670131528e+01 1.0566000000e-01 0.0000e+00 -1.0000e+00
       13  1    1    2    0    0 +7.7146394016e+00 -7.1681738947e+00 -3.8073178552e+01 3.9502866569e+01 1.0566000000e-01 0.0000e+00 1.0000e+00
    10002  1    1    2    0    0 +3.4276093552e+01 +6.3037408436e+01 +5.6446772893e+00 1.2320887887e+02 1.0000000000e+02 0.0000e+00 0.0000e+00
   -10002  1    1    2    0    0 +6.4091061220e+00 -1.2043683807e+02 +1.2812969663e+02 2.0239399142e+02 1.0000000000e+02 0.0000e+00 0.0000e+00
<mgrwt>
<rscale>  0 0.43303425E+03</rscale>
<asrwt>0</asrwt>
<pdfrwt beam="1">  1        4 0.41369714E-01 0.43303425E+03</pdfrwt>
<pdfrwt beam="2">  1       -4 0.70824253E-01 0.43303425E+03</pdfrwt>
<totfact> 0.20023002E+01</totfact>
</mgrwt>
</event>
<event>
 6      1 +2.6141198e-09 4.10360200e+02 7.81860800e-03 1.04025000e-01
        4 -1    0    0  501    0 +0.0000000000e+00 +0.0000000000e+00 +6.0062060894e+02 6.0062195164e+02 1.2700000000e+00 0.0000e+00 1.0000e+00
       -4 -1    0    0    0  501 -0.0000000000e+00 -0.0000000000e+00 -7.0085125983e+01 7.0096631760e+01 1.2700000000e+00 0.0000e+00 1.0000e+00
      -13  1    1    2    0    0 -3.6943443660e+01 +9.3587503144e+00 +3.8830952827e+01 5.4408255793e+01 1.0566000000e-01 0.0000e+00 1.0000e+00
       13  1    1    2    0    0 +5.6119317856e+01 -3.4779168871e+01 +1.3289952287e+02 1.4839562920e+02 1.0566000000e-01 0.0000e+00 -1.0000e+00
    10002  1    1    2    0    0 -1.1567018850e+02 -1.9842697316e+01 +1.8507303157e+02 2.4088452038e+02 1.0000000000e+02 0.0000e+00 0.0000e+00
   -10002  1    1    2    0    0 +9.6494314307e+01 +4.5263115873e+01 +1.7373197570e+02 2.2703017802e+02 1.0000000000e+02 0.0000e+00 0.0000e+00
<mgrwt>
<rscale>  0 0.41036023E+03</rscale>
<asrwt>0</asrwt>
<pdfrwt beam="1">  1        4 0.15015676E+00 0.41036023E+03</pdfrwt>
<pdfrwt beam="2">  1       -4 0.17522888E-01 0.41036023E+03</pdfrwt>
<totfact> 0.16973789E+01</totfact>
</mgrwt>
</event>
<event>
 6      1 +2.6141198e-09 5.43212500e+02 7.81860800e-03 1.00307700e-01
        4 -1    0    0  501    0 +0.0000000000e+00 +0.0000000000e+00 +9.1157145882e+01 9.1165992263e+01 1.2700000000e+00 0.0000e+00 -1.0000e+00
       -4 -1    0    0    0  501 -0.0000000000e+00 -0.0000000000e+00 -8.0921276052e+02 8.0921375711e+02 1.2700000000e+00 0.0000e+00 -1.0000e+00
      -13  1    1    2    0    0 +2.2865669822e+01 +1.3746546663e+01 -1.8596240977e+01 3.2521342901e+01 1.0566000000e-01 0.0000e+00 -1.0000e+00
       13  1    1    2    0    0 +4.3084175256e+00 +1.0575422623e+01 -3.9365492928e+01 4.0988476706e+01 1.0566000000e-01 0.0000e+00 1.0000e+00
    10002  1    1    2    0    0 +1.6216828567e+02 -1.5094193184e+02 -2.6152366138e+02 3.5703871657e+02 1.0000000000e+02 0.0000e+00 0.0000e+00
   -10002  1    1    2    0    0 -1.8934237302e+02 +1.2661996256e+02 -3.9857021935e+02 4.6983121320e+02 1.0000000000e+02 0.0000e+00 0.0000e+00
<mgrwt>
<rscale>  0 0.54321251E+03</rscale>
<asrwt>0</asrwt>
<pdfrwt beam="1">  1        4 0.22790519E-01 0.54321251E+03</pdfrwt>
<pdfrwt beam="2">  1       -4 0.20230440E+00 0.54321251E+03</pdfrwt>
<totfact> 0.45869329E+00</totfact>
</mgrwt>
</event>
<event>
 6      1 +2.6141198e-09 3.96208600e+02 7.81860800e-03 1.04510000e-01
        4 -1    0    0  501    0 +0.0000000000e+00 +0.0000000000e+00 +1.2239902735e+02 1.2240561587e+02 1.2700000000e+00 0.0000e+00 1.0000e+00
       -4 -1    0    0    0  501 -0.0000000000e+00 -0.0000000000e+00 -3.2061766545e+02 3.2062018075e+02 1.2700000000e+00 0.0000e+00 1.0000e+00
      -13  1    1    2    0    0 -1.6121670990e+01 +1.6976214313e+01 -4.7770659850e+01 5.3199128136e+01 1.0566000000e-01 0.0000e+00 -1.0000e+00
       13  1    1    2    0    0 +4.7300097952e+01 +2.5225558726e+01 +3.3967258260e+01 6.3461908867e+01 1.0566000000e-01 0.0000e+00 1.0000e+00
    10002  1    1    2    0    0 -5.4332038627e+01 -9.4129875671e+01 -6.7625308670e+01 1.6243640690e+02 1.0000000000e+02 0.0000e+00 0.0000e+00
   -10002  1    1    2    0    0 +2.3153611664e+01 +5.1928102632e+01 -1.1678992784e+02 1.6392835271e+02 1.0000000000e+02 0.0000e+00 0.0000e+00
<mgrwt>
<rscale>  0 0.39620857E+03</rscale>
<asrwt>0</asrwt>
<pdfrwt beam="1">  1        4 0.30600895E-01 0.39620857E+03</pdfrwt>
<pdfrwt beam="2">  1       -4 0.80155553E-01 0.39620857E+03</pdfrwt>
<totfact> 0.27373323E+01</totfact>
</mgrwt>
</event>
<event>
 6      1 +2.6141198e-09 3.67330800e+02 7.81860800e-03 1.05571800e-01
        4 -1    0    0  501    0 +0.0000000000e+00 +0.0000000000e+00 +1.4269695803e+02 1.4270260941e+02 1.2700000000e+00 0.0000e+00 -1.0000e+00
       -4 -1    0    0    0  501 -0.0000000000e+00 -0.0000000000e+00 -2.3638393077e+02 2.3638734236e+02 1.2700000000e+00 0.0000e+00 -1.0000e+00
      -13  1    1    2    0    0 -1.5309994893e+01 -3.4836975104e+01 -2.9370153397e+01 4.8068990551e+01 1.0566000000e-01 0.0000e+00 -1.0000e+00
       13  1    1    2    0    0 +7.1828263021e+01 +2.5575334693e+01 -4.3513780780e+01 8.7788708813e+01 1.0566000000e-01 0.0000e+00 1.0000e+00
    10002  1    1    2    0    0 +5.5371936230e+00 -2.5401988223e+01 +3.4118771745e+01 1.0881181969e+02 1.0000000000e+02 0.0000e+00 0.0000e+00
   -10002  1    1    2    0    0 -6.2055461751e+01 +3.4663628634e+01 -5.4921810310e+01 1.3442043271e+02 1.0000000000e+02 0.0000e+00 0.0000e+00
<mgrwt>
<rscale>  0 0.36733084E+03</rscale>
<asrwt>0</asrwt>
<pdfrwt beam="1">  1        4 0.35675373E-01 0.36733084E+03</pdfrwt>
<pdfrwt beam="2">  1       -4 0.59097115E-01 0.36733084E+03</pdfrwt>
<totfact> 0.39379232E+01</totfact>
</mgrwt>
</event>
<event>
 6      1 +2.6141198e-09 3.82713000e+02 7.81860800e-03 1.04993600e-01
        4 -1    0    0  501    0 +0.0000000000e+00 +0.0000000000e+00 +5.3251687055e+02 5.3251838496e+02 1.2700000000e+00 0.0000e+00 1.0000e+00
       -4 -1    0    0    0  501 -0.0000000000e+00 -0.0000000000e+00 -6.8755252718e+01 6.8766981003e+01 1.2700000000e+00 0.0000e+00 1.0000e+00
      -13  1    1    2    0    0 +7.1095166307e+00 +2.7326671852e+01 +5.3417611035e+01 6.0421391526e+01 1.0566000000e-01 0.0000e+00 -1.0000e+00
       13  1    1    2    0    0 +3.8556904269e+01 -8.7235075269e+01 +1.4294839927e+02 1.7184542252e+02 1.0566000000e-01 0.0000e+00 1.0000e+00
    10002  1    1    2    0    0 +3.5143848109e+01 +7.0544944388e+00 +6.8647306553e+01 1.2648046746e+02 1.0000000000e+02 0.0000e+00 0.0000e+00
   -10002  1    1    2    0    0 -8.0810269009e+01 +5.2853908979e+01 +1.9874830097e+02 2.4253808446e+02 1.0000000000e+02 0.0000e+00 0.0000e+00
<mgrwt>
<rscale>  0 0.38271302E+03</rscale>
<asrwt>0</asrwt>
<pdfrwt beam="1">  1        4 0.13313087E+00 0.38271302E+03</pdfrwt>
<pdfrwt beam="2">  1       -4 0.17190469E-01 0.38271302E+03</pdfrwt>
<totfact> 0.23857335E+01</totfact>
</mgrwt>
</event>
<event>
 6      1 +2.6141198e-09 8.80158500e+02 7.81860800e-03 9.45073000e-02
       -4 -1    0    0    0  501 -0.0000000000e+00 +0.0000000000e+00 +3.6295275910e+02 3.6295498101e+02 1.2700000000e+00 0.0000e+00 -1.0000e+00
        4 -1    0    0  501    0 +0.0000000000e+00 -0.0000000000e+00 -5.3359028401e+02 5.3359179537e+02 1.2700000000e+00 0.0000e+00 -1.0000e+00
      -13  1    1    2    0    0 -5.7879589879e+01 +3.8790673450e+01 -1.9095846899e+01 7.2245593666e+01 1.0566000000e-01 0.0000e+00 -1.0000e+00
       13  1    1    2    0    0 -5.3665629229e+01 -5.8330511904e+01 +7.8460382799e-01 7.9265851075e+01 1.0566000000e-01 0.0000e+00 1.0000e+00
    10002  1    1    2    0    0 -1.9374038488e+02 +2.5163757158e+02 -7.2716649408e+01 3.4079981700e+02 1.0000000000e+02 0.0000e+00 0.0000e+00
   -10002  1    1    2    0    0 +3.0528560399e+02 -2.3209773312e+02 -7.9609632430e+01 4.0423551464e+02 1.0000000000e+02 0.0000e+00 0.0000e+00
<mgrwt>
<rscale>  0 0.88015848E+03</rscale>
<asrwt>0</asrwt>
<pdfrwt beam="1">  1        4 0.13339804E+00 0.88015848E+03</pdfrwt>
<pdfrwt beam="2">  1       -4 0.90738657E-01 0.88015848E+03</pdfrwt>
<totfact> 0.82140373E-01</totfact>
</mgrwt>
</event>
<event>
 6      1 +2.6141198e-09 5.06741000e+02 7.81860800e-03 1.01203400e-01
       -4 -1    0    0    0  501 -0.0000000000e+00 +0.0000000000e+00 +9.6671547258e+02 9.6671630680e+02 1.2700000000e+00 0.0000e+00 -1.0000e+00
        4 -1    0    0  501    0 +0.0000000000e+00 -0.0000000000e+00 -6.6399999238e+01 6.6412143459e+01 1.2700000000e+00 0.0000e+00 -1.0000e+00
      -13  1    1    2    0    0 +9.6004079892e+00 -4.1961842412e+01 +1.4433132877e+02 1.5061376989e+02 1.0566000000e-01 0.0000e+00 -1.0000e+00
       13  1    1    2    0    0 +9.9280610097e+00 +5.8317462534e+01 +1.4264180167e+02 1.5442210845e+02 1.0566000000e-01 0.0000e+00 1.0000e+00
    10002  1    1    2    0    0 +1.5049807613e+02 +2.3494288583e+01 +2.1518176079e+02 2.8196603110e+02 1.0000000000e+02 0.0000e+00 0.0000e+00
   -10002  1    1    2    0    0 -1.7002654513e+02 -3.9849908706e+01 +3.9816058211e+02 4.4612654082e+02 1.0000000000e+02 0.0000e+00 0.0000e+00
<mgrwt>
<rscale>  0 0.50674100E+03</rscale>
<asrwt>0</asrwt>
<pdfrwt beam="1">  1        4 0.16601622E-01 0.50674100E+03</pdfrwt>
<pdfrwt beam="2">  1       -4 0.24168049E+00 0.50674100E+03</pdfrwt>
<totfact> 0.46543565E+00</totfact>
</mgrwt>
</event>
<event>
 6      1 +2.6141198e-09 3.86509600e+02 7.81860800e-03 1.04855400e-01
        4 -1    0    0  501    0 +0.0000000000e+00 +0.0000000000e+00 +1.1400086501e+02 1.1400793886e+02 1.2700000000e+00 0.0000e+00 -1.0000e+00
       -4 -1    0    0    0  501 -0.0000000000e+00 -0.0000000000e+00 -3.2758789212e+02 3.2759035390e+02 1.2700000000e+00 0.0000e+00 -1.0000e+00
      -13  1    1    2    0    0 -2.8952252865e+00 -3.7443162821e+01 +4.2823404671e+01 5.6958124294e+01 1.0566000000e-01 0.0000e+00 1.0000e+00
       13  1    1    2    0    0 -4.9866536174e+01 -1.4003835726e+01 -3.8679739781e+01 6.4644506949e+01 1.0566000000e-01 0.0000e+00 -1.0000e+00
    10002  1    1    2    0    0 +5.1456969521e+01 +6.5381232805e+01 -9.5090658703e+01 1.6113583924e+02 1.0000000000e+02 0.0000e+00 0.0000e+00
   -10002  1    1    2    0    0 +1.3047919392e+00 -1.3934234258e+01 -1.2264003330e+02 1.5885982227e+02 1.0000000000e+02 0.0000e+00 0.0000e+00
<mgrwt>
<rscale>  0 0.38650955E+03</rscale>
<asrwt>0</asrwt>
<pdfrwt beam="1">  1        4 0.28501409E-01 0.38650955E+03</pdfrwt>
<pdfrwt beam="2">  1       -4 0.81898163E-01 0.38650955E+03</pdfrwt>
<totfact> 0.29834123E+01</totfact>
</mgrwt>
</event>
<event>
 6      1 +2.6141198e-09 3.78038900e+02 7.81860800e-03 1.05166100e-01
        4 -1    0    0  501    0 +0.0000000000e+00 +0.0000000000e+00 +3.5809218206e+02 3.5809443413e+02 1.2700000000e+00 0.0000e+00 1.0000e+00
       -4 -1    0    0    0  501 -0.0000000000e+00 -0.0000000000e+00 -9.9767591572e+01 9.9775674531e+01 1.2700000000e+00 0.0000e+00 1.0000e+00
      -13  1    1    2    0    0 +8.0882676722e+00 +7.7346407800e+01 +7.8792980826e+00 7.8166369852e+01 1.0566000000e-01 0.0000e+00 -1.0000e+00
       13  1    1    2    0    0 +2.2776827536e+01 -2.0196627424e+01 +2.5316391110e+01 3.9593161718e+01 1.0566000000e-01 0.0000e+00 1.0000e+00
    10002  1    1    2    0    0 +4.6143841711e+01 -5.3519959972e+01 +7.3590057866e+01 1.4286055040e+02 1.0000000000e+02 0.0000e+00 0.0000e+00
   -10002  1    1    2    0    0 -7.7008936919e+01 -3.6298204042e+00 +1.5153884343e+02 1.9725002669e+02 1.0000000000e+02 0.0000e+00 0.0000e+00
<mgrwt>
<rscale>  0 0.37803894E+03</rscale>
<asrwt>0</asrwt>
<pdfrwt beam="1">  1        4 0.89524336E-01 0.37803894E+03</pdfrwt>
<pdfrwt beam="2">  1       -4 0.24943190E-01 0.37803894E+03</pdfrwt>
<totfact> 0.31289261E+01</totfact>
</mgrwt>
</event>
<event>
 6      1 +2.6141198e-09 5.26979600e+02 7.81860800e-03 1.00696700e-01
       -4 -1    0    0    0  501 -0.0000000000e+00 +0.0000000000e+00 +6.3001254634e+02 6.3001382639e+02 1.2700000000e+00 0.0000e+00 -1.0000e+00
        4 -1    0    0  501    0 +0.0000000000e+00 -0.0000000000e+00 -1.1019415300e+02 1.1020147120e+02 1.2700000000e+00 0.0000e+00 -1.0000e+00
      -13  1    1    2    0    0 -1.9111756369e+00 +3.5653633908e+01 +9.2854688173e+00 3.6892618481e+01 1.0566000000e-01 0.0000e+00 1.0000e+00
       13  1    1    2    0    0 +3.4756844557e+01 -4.6701450159e+01 -2.1902307875e+01 6.2199565471e+01 1.0566000000e-01 0.0000e+00 -1.0000e+00
    10002  1    1    2    0    0 -1.3499535596e+02 +2.9311756398e+01 +1.3233316240e+02 2.1585872942e+02 1.0000000000e+02 0.0000e+00 0.0000e+00
   -10002  1    1    2    0    0 +1.0214968704e+02 -1.8263940148e+01 +4.0010207000e+02 4.2526438422e+02 1.0000000000e+02 0.0000e+00 0.0000e+00
<mgrwt>
<rscale>  0 0.52697962E+03</rscale>
<asrwt>0</asrwt>
<pdfrwt beam="1">  1        4 0.27549613E-01 0.52697962E+03</pdfrwt>
<pdfrwt beam="2">  1       -4 0.15750421E+00 0.52697962E+03</pdfrwt>
<totfact> 0.65144627E+00</totfact>
</mgrwt>
</event>
<event>
 6      1 +2.6141198e-09 4.01616600e+02 7.81860800e-03 1.04322100e-01
        4 -1    0    0  501    0 +0.0000000000e+00 +0.0000000000e+00 +9.8088843817e+01 9.8097065101e+01 1.2700000000e+00 0.0000e+00 -1.0000e+00
       -4 -1    0    0    0  501 -0.0000000000e+00 -0.0000000000e+00 -4.1107007048e+02 4.1107203230e+02 1.2700000000e+00 0.0000e+00 -1.0000e+00
      -13  1    1    2    0    0 -7.2571753088e+01 +1.0070996508e+01 +1.0829572099e+01 7.4063318268e+01 1.0566000000e-01 0.0000e+00 -1.0000e+00
       13  1    1    2    0    0 +1.6920777031e+01 +2.1410177898e+01 -4.2503668227e+01 5.0510210747e+01 1.0566000000e-01 0.0000e+00 1.0000e+00
    10002  1    1    2    0    0 -1.4643312887e+01 -3.8617770898e+01 -2.2534086073e+02 2.4996852273e+02 1.0000000000e+02 0.0000e+00 0.0000e+00
   -10002  1    1    2    0    0 +7.0294288944e+01 +7.1365964925e+00 -5.5966269804e+01 1.3462704566e+02 1.0000000000e+02 0.0000e+00 0.0000e+00
<mgrwt>
<rscale>  0 0.40161664E+03</rscale>
<asrwt>0</asrwt>
<pdfrwt beam="1">  1        4 0.24523485E-01 0.40161664E+03</pdfrwt>
<pdfrwt beam="2">  1       -4 0.10276879E+00 0.40161664E+03</pdfrwt>
<totfact> 0.23484585E+01</totfact>
</mgrwt>
</event>
<event>
 6      1 +2.6141198e-09 4.65040600e+02 7.81860800e-03 1.02332900e-01
        4 -1    0    0  501    0 +0.0000000000e+00 +0.0000000000e+00 +1.5636921373e+02 1.5637437099e+02 1.2700000000e+00 0.0000e+00 1.0000e+00
       -4 -1    0    0    0  501 -0.0000000000e+00 -0.0000000000e+00 -3.4574451744e+02 3.4574684994e+02 1.2700000000e+00 0.0000e+00 1.0000e+00
      -13  1    1    2    0    0 -2.1407831065e+01 -5.2698399510e+01 -6.5658994935e+01 8.6870773691e+01 1.0566000000e-01 0.0000e+00 -1.0000e+00
       13  1    1    2    0    0 -1.5324428724e+01 +4.6904831900e+01 -2.2117360141e+01 5.4074856957e+01 1.0566000000e-01 0.0000e+00 1.0000e+00
    10002  1    1    2    0    0 -1.0193411054e+02 -4.1596800271e+01 -1.0774915676e+02 1.8365929725e+02 1.0000000000e+02 0.0000e+00 0.0000e+00
   -10002  1    1    2    0    0 +1.3866637033e+02 +4.7390367881e+01 +6.1502081138e+00 1.7751629302e+02 1.0000000000e+02 0.0000e+00 0.0000e+00
<mgrwt>
<rscale>  0 0.46504055E+03</rscale>
<asrwt>0</asrwt>
<pdfrwt beam="1">  1        4 0.39093240E-01 0.46504055E+03</pdfrwt>
<pdfrwt beam="2">  1       -4 0.86437064E-01 0.46504055E+03</pdfrwt>
<totfact> 0.14382291E+01</totfact>
</mgrwt>
</event>
<event>
 6      1 +2.6141198e-09 6.67500700e+02 7.81860800e-03 9.77448300e-02
        4 -1    0    0  501    0 +0.0000000000e+00 +0.0000000000e+00 +3.0438899314e+02 3.0439164254e+02 1.2700000000e+00 0.0000e+00 1.0000e+00
       -4 -1    0    0    0  501 -0.0000000000e+00 -0.0000000000e+00 -3.6593854916e+02 3.6594075294e+02 1.2700000000e+00 0.0000e+00 1.0000e+00
      -13  1    1    2    0    0 -1.5140851761e+01 -1.5074336214e+01 +1.2792896211e+01 2.4902818351e+01 1.0566000000e-01 0.0000e+00 1.0000e+00
       13  1    1    2    0    0 +4.1483262404e+01 +1.0755469168e+02 +2.6732938349e+01 1.1833652825e+02 1.0566000000e-01 0.0000e+00 -1.0000e+00
    10002  1    1    2    0    0 -1.5355401262e+02 +6.9913586546e+01 +1.0179302823e+02 2.2097186466e+02 1.0000000000e+02 0.0000e+00 0.0000e+00
   -10002  1    1    2    0    0 +1.2721160197e+02 -1.6239394201e+02 -2.0286841880e+02 3.0612118421e+02 1.0000000000e+02 0.0000e+00 0.0000e+00
<mgrwt>
<rscale>  0 0.66750069E+03</rscale>
<asrwt>0</asrwt>
<pdfrwt beam="1">  1        4 0.76097855E-01 0.66750069E+03</pdfrwt>
<pdfrwt beam="2">  1       -4 0.91485244E-01 0.66750069E+03</pdfrwt>
<totfact> 0.31051758E+00</totfact>
</mgrwt>
</event>
<event>
 6      1 +2.6141198e-09 9.07637400e+02 7.81860800e-03 9.41608400e-02
        4 -1    0    0  501    0 +0.0000000000e+00 +0.0000000000e+00 +1.5589266773e+03 1.5589271947e+03 1.2700000000e+00 0.0000e+00 1.0000e+00
       -4 -1    0    0    0  501 -0.0000000000e+00 -0.0000000000e+00 -1.3210744389e+02 1.3211354825e+02 1.2700000000e+00 0.0000e+00 1.0000e+00
      -13  1    1    2    0    0 -3.1409899192e+01 +5.4946990831e+01 -2.0827553067e+01 6.6629960974e+01 1.0566000000e-01 0.0000e+00 1.0000e+00
       13  1    1    2    0    0 -4.8050005465e+01 -3.4101652078e+01 +2.0553678696e+01 6.2403449998e+01 1.0566000000e-01 0.0000e+00 -1.0000e+00
    10002  1    1    2    0    0 +2.0873777591e+02 +9.4457882676e+01 +1.3026853928e+03 1.3264550439e+03 1.0000000000e+02 0.0000e+00 0.0000e+00
   -10002  1    1    2    0    0 -1.2927787125e+02 -1.1530322143e+02 +1.2440771500e+02 2.3555228808e+02 1.0000000000e+02 0.0000e+00 0.0000e+00
<mgrwt>
<rscale>  0 0.90763741E+03</rscale>
<asrwt>0</asrwt>
<pdfrwt beam="1">  1        4 0.38973250E+00 0.90763741E+03</pdfrwt>
<pdfrwt beam="2">  1       -4 0.33027689E-01 0.90763741E+03</pdfrwt>
<totfact> 0.14653648E-01</totfact>
</mgrwt>
</event>
<event>
 6      1 +2.6141198e-09 5.09430100e+02 7.81860800e-03 1.01134600e-01
        4 -1    0    0  501    0 +0.0000000000e+00 +0.0000000000e+00 +1.8745774608e+02 1.8746204806e+02 1.2700000000e+00 0.0000e+00 1.0000e+00
       -4 -1    0    0    0  501 -0.0000000000e+00 -0.0000000000e+00 -3.4609393112e+02 3.4609626126e+02 1.2700000000e+00 0.0000e+00 1.0000e+00
      -13  1    1    2    0    0 +1.2813527985e+01 +1.8323808809e+01 +3.3700443206e+01 4.0443534774e+01 1.0566000000e-01 0.0000e+00 -1.0000e+00
       13  1    1    2    0    0 +3.6585085208e+01 +1.3242312127e+01 -6.5654937109e+01 7.6317817192e+01 1.0566000000e-01 0.0000e+00 1.0000e+00
    10002  1    1    2    0    0 -4.3127482687e+01 +7.8870297054e+01 -2.0744658563e+02 2.4721365134e+02 1.0000000000e+02 0.0000e+00 0.0000e+00
   -10002  1    1    2    0    0 -6.2711305049e+00 -1.1043641799e+02 +8.0764894491e+01 1.6958330601e+02 1.0000000000e+02 0.0000e+00 0.0000e+00
<mgrwt>
<rscale>  0 0.50943010E+03</rscale>
<asrwt>0</asrwt>
<pdfrwt beam="1">  1        4 0.46865266E-01 0.50943010E+03</pdfrwt>
<pdfrwt beam="2">  1       -4 0.86524311E-01 0.50943010E+03</pdfrwt>
<totfact> 0.99686909E+00</totfact>
</mgrwt>
</event>
<event>
 6      1 +2.6141198e-09 6.38171400e+02 7.81860800e-03 9.82923100e-02
       -4 -1    0    0    0  501 -0.0000000000e+00 +0.0000000000e+00 +5.5177126807e+02 5.5177272963e+02 1.2700000000e+00 0.0000e+00 1.0000e+00
        4 -1    0    0  501    0 +0.0000000000e+00 -0.0000000000e+00 -1.8452129747e+02 1.8452566792e+02 1.2700000000e+00 0.0000e+00 1.0000e+00
      -13  1    1    2    0    0 -3.0894323444e+01 +5.6627856828e+01 +2.0526405751e+02 2.1516160871e+02 1.0566000000e-01 0.0000e+00 1.0000e+00
       13  1    1    2    0    0 -9.0076997957e+01 +3.6104660408e+01 +7.4226156015e+01 1.2217587923e+02 1.0566000000e-01 0.0000e+00 -1.0000e+00
    10002  1    1    2    0    0 +1.7427108936e+02 +1.1152844115e+01 -3.2422127914e+01 2.0382834174e+02 1.0000000000e+02 0.0000e+00 0.0000e+00
   -10002  1    1    2    0    0 -5.3299767960e+01 -1.0388536135e+02 +1.2018188498e+02 1.9513256787e+02 1.0000000000e+02 0.0000e+00 0.0000e+00
<mgrwt>
<rscale>  0 0.63817144E+03</rscale>
<asrwt>0</asrwt>
<pdfrwt beam="1">  1        4 0.46131054E-01 0.63817144E+03</pdfrwt>
<pdfrwt beam="2">  1       -4 0.13794354E+00 0.63817144E+03</pdfrwt>
<totfact> 0.33329403E+00</totfact>
</mgrwt>
</event>
<event>
 6      1 +2.6141198e-09 5.50613300e+02 7.81860800e-03 1.00135200e-01
       -4 -1    0    0    0  501 -0.0000000000e+00 +0.0000000000e+00 +3.6252095449e+02 3.6252317905e+02 1.2700000000e+00 0.0000e+00 -1.0000e+00
        4 -1    0    0  501    0 +0.0000000000e+00 -0.0000000000e+00 -2.0906935300e+02 2.0907321030e+02 1.2700000000e+00 0.0000e+00 -1.0000e+00
      -13  1    1    2    0    0 +3.1679433090e+01 -1.7170366354e+01 +1.5536602481e+02 1.5948987676e+02 1.0566000000e-01 0.0000e+00 -1.0000e+00
       13  1    1    2    0    0 +1.5187627681e+01 +3.4536036023e+01 +6.7748078249e+00 3.8331592765e+01 1.0566000000e-01 0.0000e+00 1.0000e+00
    10002  1    1    2    0    0 +7.1235902573e+01 -1.0746008328e+02 -7.9144323883e+01 1.8134510558e+02 1.0000000000e+02 0.0000e+00 0.0000e+00
   -10002  1    1    2    0    0 -1.1810296334e+02 +9.0094413607e+01 +7.0455092745e+01 1.9242981424e+02 1.0000000000e+02 0.0000e+00 0.0000e+00
<mgrwt>
<rscale>  0 0.55061333E+03</rscale>
<asrwt>0</asrwt>
<pdfrwt beam="1">  1        4 0.52268099E-01 0.55061333E+03</pdfrwt>
<pdfrwt beam="2">  1       -4 0.90630999E-01 0.55061333E+03</pdfrwt>
<totfact> 0.71552710E+00</totfact>
</mgrwt>
</event>
<event>
 6      1 +2.6141198e-09 3.37982600e+02 7.81860800e-03 1.06765800e-01
       -4 -1    0    0    0  501 -0.0000000000e+00 +0.0000000000e+00 +1.9798836243e+02 1.9799243560e+02 1.2700000000e+00 0.0000e+00 -1.0000e+00
        4 -1    0    0  501    0 +0.0000000000e+00 -0.0000000000e+00 -1.4423273583e+02 1.4423832703e+02 1.2700000000e+00 0.0000e+00 -1.0000e+00
      -13  1    1    2    0    0 -1.4514811668e+01 +2.3279053503e+01 +2.9552079244e+01 4.0322830276e+01 1.0566000000e-01 0.0000e+00 1.0000e+00
       13  1    1    2    0    0 -1.4731978741e+01 -5.0876522463e+01 -8.1833841882e+00 5.3595062052e+01 1.0566000000e-01 0.0000e+00 -1.0000e+00
    10002  1    1    2    0    0 -1.6386328345e+01 -9.1254892277e+00 +7.3314238770e+01 1.2540639504e+02 1.0000000000e+02 0.0000e+00 0.0000e+00
   -10002  1    1    2    0    0 +4.5633118754e+01 +3.6722958188e+01 -4.0927307226e+01 1.2290647527e+02 1.0000000000e+02 0.0000e+00 0.0000e+00
<mgrwt>
<rscale>  0 0.33798258E+03</rscale>
<asrwt>0</asrwt>
<pdfrwt beam="1">  1        4 0.36059392E-01 0.33798258E+03</pdfrwt>
<pdfrwt beam="2">  1       -4 0.49498298E-01 0.33798258E+03</pdfrwt>
<totfact> 0.55548822E+01</totfact>
</mgrwt>
</event>
<event>
 6      1 +2.6141198e-09 3.81323600e+02 7.81860800e-03 1.05044600e-01
        4 -1    0    0  501    0 +0.0000000000e+00 +0.0000000000e+00 +9.1312052837e+01 9.1320884213e+01 1.2700000000e+00 0.0000e+00 1.0000e+00
       -4 -1    0    0    0  501 -0.0000000000e+00 -0.0000000000e+00 -3.9807731622e+02 3.9807934208e+02 1.2700000000e+00 0.0000e+00 1.0000e+00
      -13  1    1    2    0    0 -4.5100242809e+01 +6.0146234670e+00 -6.0305217604e+01 7.5544278613e+01 1.0566000000e-01 0.0000e+00 1.0000e+00
       13  1    1    2    0    0 +4.0626104986e+01 +4.9811878936e+01 -4.5971895020e+01 7.9026134824e+01 1.0566000000e-01 0.0000e+00 -1.0000e+00
    10002  1    1    2    0    0 -1.8084193989e+01 -1.1167814270e+02 -1.2250153251e+02 1.9443680489e+02 1.0000000000e+02 0.0000e+00 0.0000e+00
   -10002  1    1    2    0    0 +2.2558331812e+01 +5.5851640302e+01 -7.7986618254e+01 1.4039300796e+02 1.0000000000e+02 0.0000e+00 0.0000e+00
<mgrwt>
<rscale>  0 0.38132356E+03</rscale>
<asrwt>0</asrwt>
<pdfrwt beam="1">  1        4 0.22829371E-01 0.38132356E+03</pdfrwt>
<pdfrwt beam="2">  1       -4 0.99520682E-01 0.38132356E+03</pdfrwt>
<totfact> 0.28867222E+01</totfact>
</mgrwt>
</event>
<event>
 6      1 +2.6141198e-09 4.48371000e+02 7.81860800e-03 1.02820900e-01
        4 -1    0    0  501    0 +0.0000000000e+00 +0.0000000000e+00 +1.7405834558e+02 1.7406297874e+02 1.2700000000e+00 0.0000e+00 -1.0000e+00
       -4 -1    0    0    0  501 -0.0000000000e+00 -0.0000000000e+00 -2.8873897392e+02 2.8874176691e+02 1.2700000000e+00 0.0000e+00 -1.0000e+00
      -13  1    1    2    0    0 -2.3431429526e+01 -5.2762998543e+01 +6.3719238220e+01 8.5983244811e+01 1.0566000000e-01 0.0000e+00 1.0000e+00
       13  1    1    2    0    0 -6.2192816692e-01 +1.6456911212e+01 -1.2140898052e+01 2.0460432323e+01 1.0566000000e-01 0.0000e+00 -1.0000e+00
    10002  1    1    2    0    0 -6.9254568890e+01 -2.7906591086e+01 -1.6292379027e+02 2.0522946809e+02 1.0000000000e+02 0.0000e+00 0.0000e+00
   -10002  1    1    2    0    0 +9.3307926583e+01 +6.4212678417e+01 -3.3351782406e+00 1.5113160042e+02 1.0000000000e+02 0.0000e+00 0.0000e+00
<mgrwt>
<rscale>  0 0.44837104E+03</rscale>
<asrwt>0</asrwt>
<pdfrwt beam="1">  1        4 0.43515515E-01 0.44837104E+03</pdfrwt>
<pdfrwt beam="2">  1       -4 0.72185671E-01 0.44837104E+03</pdfrwt>
<totfact> 0.17362155E+01</totfact>
</mgrwt>
</event>
<event>
 6      1 +2.6141198e-09 6.93320600e+02 7.81860800e-03 9.72872300e-02
       -4 -1    0    0    0  501 -0.0000000000e+00 +0.0000000000e+00 +7.1790030505e+02 7.1790142839e+02 1.2700000000e+00 0.0000e+00 1.0000e+00
        4 -1    0    0  501    0 +0.0000000000e+00 -0.0000000000e+00 -1.6739196110e+02 1.6739677876e+02 1.2700000000e+00 0.0000e+00 1.0000e+00
      -13  1    1    2    0    0 -1.8830762811e+01 +2.4048874953e+01 +6.4478372084e+01 7.1347162839e+01 1.0566000000e-01 0.0000e+00 1.0000e+00
       13  1    1    2    0    0 +1.0652664416e+02 +7.5745993288e-01 +3.1081210748e+02 3.2856152694e+02 1.0566000000e-01 0.0000e+00 -1.0000e+00
    10002  1    1    2    0    0 -1.0864930214e+02 +1.7340687999e+02 +6.6291850140e+01 2.3721135361e+02 1.0000000000e+02 0.0000e+00 0.0000e+00
   -10002  1    1    2    0    0 +2.0953420792e+01 -1.9821321488e+02 +1.0892601425e+02 2.4817816377e+02 1.0000000000e+02 0.0000e+00 0.0000e+00
<mgrwt>
<rscale>  0 0.69332062E+03</rscale>
<asrwt>0</asrwt>
<pdfrwt beam="1">  1        4 0.41848733E-01 0.69332062E+03</pdfrwt>
<pdfrwt beam="2">  1       -4 0.17947582E+00 0.69332062E+03</pdfrwt>
<totfact> 0.19957144E+00</totfact>
</mgrwt>
</event>
<event>
 6      1 +2.6141198e-09 5.29610300e+02 7.81860800e-03 1.00632700e-01
        4 -1    0    0  501    0 +0.0000000000e+00 +0.0000000000e+00 +6.5077342107e+01 6.5089733105e+01 1.2700000000e+00 0.0000e+00 -1.0000e+00
       -4 -1    0    0    0  501 -0.0000000000e+00 -0.0000000000e+00 -1.0773987774e+03 1.0773995259e+03 1.2700000000e+00 0.0000e+00 -1.0000e+00
      -13  1    1    2    0    0 -1.4220757407e+01 -2.0526968576e+01 -5.3708018268e+01 5.9229627472e+01 1.0566000000e-01 0.0000e+00 -1.0000e+00
       13  1    1    2    0    0 +3.6189587696e+01 +7.9275028192e+01 -7.8476482686e+01 1.1727227230e+02 1.0566000000e-01 0.0000e+00 1.0000e+00
    10002  1    1    2    0    0 -1.0554670656e+02 -1.1625336054e+02 -7.5095615739e+02 7.7368604836e+02 1.0000000000e+02 0.0000e+00 0.0000e+00
   -10002  1    1    2    0    0 +8.3577876276e+01 +5.7505300921e+01 -1.2918077696e+02 1.9230131090e+02 1.0000000000e+02 0.0000e+00 0.0000e+00
<mgrwt>
<rscale>  0 0.52961025E+03</rscale>
<asrwt>0</asrwt>
<pdfrwt beam="1">  1        4 0.16270981E-01 0.52961025E+03</pdfrwt>
<pdfrwt beam="2">  1       -4 0.26935128E+00 0.52961025E+03</pdfrwt>
<totfact> 0.32824449E+00</totfact>
</mgrwt>
</event>
<event>
 6      1 +2.6141198e-09 3.65984900e+02 7.81860800e-03 1.05623900e-01
        4 -1    0    0  501    0 +0.0000000000e+00 +0.0000000000e+00 +2.2072401173e+02 2.2072766536e+02 1.2700000000e+00 0.0000e+00 1.0000e+00
       -4 -1    0    0    0  501 -0.0000000000e+00 -0.0000000000e+00 -1.5170336608e+02 1.5170868195e+02 1.2700000000e+00 0.0000e+00 1.0000e+00
      -13  1    1    2    0    0 -1.9722629243e+01 -3.1657239642e+01 -4.2310364071e+01 5.6403377539e+01 1.0566000000e-01 0.0000e+00 -1.0000e+00
       13  1    1    2    0    0 -2.9737658368e+00 +3.5080604684e+01 +4.4175468151e+01 5.6488717977e+01 1.0566000000e-01 0.0000e+00 1.0000e+00
    10002  1    1    2    0    0 -3.1809195583e+01 +3.0032310137e+01 -2.1678566130e+01 1.1128218548e+02 1.0000000000e+02 0.0000e+00 0.0000e+00
   -10002  1    1    2    0    0 +5.4505590663e+01 -3.3455675179e+01 +8.8834107707e+01 1.4826206631e+02 1.0000000000e+02 0.0000e+00 0.0000e+00
<mgrwt>
<rscale>  0 0.36598495E+03</rscale>
<asrwt>0</asrwt>
<pdfrwt beam="1">  1        4 0.55182124E-01 0.36598495E+03</pdfrwt>
<pdfrwt beam="2">  1       -4 0.37926963E-01 0.36598495E+03</pdfrwt>
<totfact> 0.40334591E+01</totfact>
</mgrwt>
</event>
<event>
 6      1 +2.6141198e-09 6.68659300e+02 7.81860800e-03 9.77238300e-02
        4 -1    0    0  501    0 +0.0000000000e+00 +0.0000000000e+00 +2.6185089957e+02 2.6185397935e+02 1.2700000000e+00 0.0000e+00 1.0000e+00
       -4 -1    0    0    0  501 -0.0000000000e+00 -0.0000000000e+00 -4.2686355257e+02 4.2686544181e+02 1.2700000000e+00 0.0000e+00 1.0000e+00
      -13  1    1    2    0    0 +1.2628793537e+01 +1.0452677964e+01 +1.8357797738e+00 1.6496246671e+01 1.0566000000e-01 0.0000e+00 -1.0000e+00
       13  1    1    2    0    0 -4.3783456523e+01 -4.2993898201e+01 -6.5589901802e+01 8.9819333832e+01 1.0566000000e-01 0.0000e+00 1.0000e+00
    10002  1    1    2    0    0 -1.4156471520e+02 -2.0124312739e+01 +1.6861374981e+02 2.4264408745e+02 1.0000000000e+02 0.0000e+00 0.0000e+00
   -10002  1    1    2    0    0 +1.7271937818e+02 +5.2665532976e+01 -2.6987228078e+02 3.3975975321e+02 1.0000000000e+02 0.0000e+00 0.0000e+00
<mgrwt>
<rscale>  0 0.66865930E+03</rscale>
<asrwt>0</asrwt>
<pdfrwt beam="1">  1        4 0.65463347E-01 0.66865930E+03</pdfrwt>
<pdfrwt beam="2">  1       -4 0.10671651E+00 0.66865930E+03</pdfrwt>
<totfact> 0.30069539E+00</totfact>
</mgrwt>
</event>
<event>
 6      1 +2.6141198e-09 6.63432800e+02 7.81860800e-03 9.78189500e-02
        4 -1    0    0  501    0 +0.0000000000e+00 +0.0000000000e+00 +1.6298554733e+03 1.6298559681e+03 1.2700000000e+00 0.0000e+00 -1.0000e+00
       -4 -1    0    0    0  501 -0.0000000000e+00 -0.0000000000e+00 -6.7506121041e+01 6.7518066308e+01 1.2700000000e+00 0.0000e+00 -1.0000e+00
      -13  1    1    2    0    0 +7.5729354213e+01 -1.6862204107e+01 +1.8362621498e+02 1.9934359034e+02 1.0566000000e-01 0.0000e+00 -1.0000e+00
       13  1    1    2    0    0 +9.0349189873e+00 -8.2291768367e+01 +8.7793739557e+01 1.2067028123e+02 1.0566000000e-01 0.0000e+00 1.0000e+00
    10002  1    1    2    0    0 -2.2510218634e+02 +8.2619266565e+01 +4.5730907430e+02 5.2595487158e+02 1.0000000000e+02 0.0000e+00 0.0000e+00
   -10002  1    1    2    0    0 +1.4033791314e+02 +1.6534705909e+01 +8.3362032340e+02 8.5140529124e+02 1.0000000000e+02 0.0000e+00 0.0000e+00
<mgrwt>
<rscale>  0 0.66343283E+03</rscale>
<asrwt>0</asrwt>
<pdfrwt beam="1">  1        4 0.40746545E+00 0.66343283E+03</pdfrwt>
<pdfrwt beam="2">  1       -4 0.16878084E-01 0.66343283E+03</pdfrwt>
<totfact> 0.40358683E-01</totfact>
</mgrwt>
</event>
<event>
 6      1 +2.6141198e-09 4.65212500e+02 7.81860800e-03 1.02328000e-01
       -4 -1    0    0    0  501 -0.0000000000e+00 +0.0000000000e+00 +4.9914335616e+02 4.9914497182e+02 1.2700000000e+00 0.0000e+00 -1.0000e+00
        4 -1    0    0  501    0 +0.0000000000e+00 -0.0000000000e+00 -1.0839155749e+02 1.0839899739e+02 1.2700000000e+00 0.0000e+00 -1.0000e+00
      -13  1    1    2    0    0 -5.1814298496e+01 +1.5933754139e+01 +8.2162709403e+01 9.8434384389e+01 1.0566000000e-01 0.0000e+00 1.0000e+00
       13  1    1    2    0    0 -5.1466210699e+01 -5.0812387493e+01 +3.7388683542e+00 7.2420023937e+01 1.0566000000e-01 0.0000e+00 -1.0000e+00
    10002  1    1    2    0    0 +1.5771777150e+02 -4.6215530747e+00 +2.2350285324e+02 2.9128985497e+02 1.0000000000e+02 0.0000e+00 0.0000e+00
   -10002  1    1    2    0    0 -5.4437262310e+01 +3.9500186429e+01 +8.1347367670e+01 1.4539970592e+02 1.0000000000e+02 0.0000e+00 0.0000e+00
<mgrwt>
<rscale>  0 0.46521254E+03</rscale>
<asrwt>0</asrwt>
<pdfrwt beam="1">  1        4 0.27099021E-01 0.46521254E+03</pdfrwt>
<pdfrwt beam="2">  1       -4 0.12478697E+00 0.46521254E+03</pdfrwt>
<totfact> 0.12217832E+01</totfact>
</mgrwt>
</event>
<event>
 6      1 +2.6141198e-09 7.62489600e+02 7.81860800e-03 9.61595700e-02
        4 -1    0    0  501    0 +0.0000000000e+00 +0.0000000000e+00 +6.3530645333e+02 6.3530772272e+02 1.2700000000e+00 0.0000e+00 1.0000e+00
       -4 -1    0    0    0  501 -0.0000000000e+00 -0.0000000000e+00 -2.2878020901e+02 2.2878373398e+02 1.2700000000e+00 0.0000e+00 1.0000e+00
      -13  1    1    2    0    0 +5.0873823904e+01 -1.6664294374e+01 +3.0084215931e+01 6.1407783528e+01 1.0566000000e-01 0.0000e+00 1.0000e+00
       13  1    1    2    0    0 -6.9310859937e+01 +7.8576333462e+00 +1.0929780711e+02 1.2966016933e+02 1.0566000000e-01 0.0000e+00 -1.0000e+00
    10002  1    1    2    0    0 +5.2177208585e+01 -1.9771862362e+02 +3.5774668606e+02 4.2402571456e+02 1.0000000000e+02 0.0000e+00 0.0000e+00
   -10002  1    1    2    0    0 -3.3740172553e+01 +2.0652528465e+02 -9.0602464776e+01 2.4899778928e+02 1.0000000000e+02 0.0000e+00 0.0000e+00
<mgrwt>
<rscale>  0 0.76248964E+03</rscale>
<asrwt>0</asrwt>
<pdfrwt beam="1">  1        4 0.15882721E+00 0.76248964E+03</pdfrwt>
<pdfrwt beam="2">  1       -4 0.57195652E-01 0.76248964E+03</pdfrwt>
<totfact> 0.14594973E+00</totfact>
</mgrwt>
</event>
<event>
 6      1 +2.6141198e-09 6.13710100e+02 7.81860800e-03 9.87736300e-02
        4 -1    0    0  501    0 +0.0000000000e+00 +0.0000000000e+00 +1.0758212677e+03 1.0758220174e+03 1.2700000000e+00 0.0000e+00 1.0000e+00
       -4 -1    0    0    0  501 -0.0000000000e+00 -0.0000000000e+00 -8.7518464692e+01 8.7527678833e+01 1.2700000000e+00 0.0000e+00 1.0000e+00
      -13  1    1    2    0    0 +2.7221262294e+01 +9.4230343526e+00 -3.2099321551e+00 2.8984573927e+01 1.0566000000e-01 0.0000e+00 -1.0000e+00
       13  1    1    2    0    0 +6.1462742063e+01 -2.6942275676e+01 +1.9835636939e+02 2.0940108721e+02 1.0566000000e-01 0.0000e+00 1.0000e+00
    10002  1    1    2    0    0 +1.1413053828e+02 +1.4683459860e+02 +2.9461079390e+02 3.6246613497e+02 1.0000000000e+02 0.0000e+00 0.0000e+00
   -10002  1    1    2    0    0 -2.0281454264e+02 -1.2931535727e+02 +4.9854557190e+02 5.6249790008e+02 1.0000000000e+02 0.0000e+00 0.0000e+00
<mgrwt>
<rscale>  0 0.61371010E+03</rscale>
<asrwt>0</asrwt>
<pdfrwt beam="1">  1        4 0.26895656E+00 0.61371010E+03</pdfrwt>
<pdfrwt beam="2">  1       -4 0.21880862E-01 0.61371010E+03</pdfrwt>
<totfact> 0.19145946E+00</totfact>
</mgrwt>
</event>
<event>
 6      1 +2.6141198e-09 4.14356000e+02 7.81860800e-03 1.03891900e-01
       -4 -1    0    0    0  501 -0.0000000000e+00 +0.0000000000e+00 +5.3263382980e+02 5.3263534388e+02 1.2700000000e+00 0.0000e+00 -1.0000e+00
        4 -1    0    0  501    0 +0.0000000000e+00 -0.0000000000e+00 -8.0579152980e+01 8.0589160531e+01 1.2700000000e+00 0.0000e+00 -1.0000e+00
      -13  1    1    2    0    0 +1.2253792903e+01 -9.0273189507e+00 +3.9418141490e+01 4.2254573368e+01 1.0566000000e-01 0.0000e+00 1.0000e+00
       13  1    1    2    0    0 -2.8278374401e+01 +6.8423488043e+01 -1.8251000064e+01 7.6253198897e+01 1.0566000000e-01 0.0000e+00 -1.0000e+00
    10002  1    1    2    0    0 +3.9633693736e+01 -5.4069554537e+00 +3.0513568184e+02 3.2358592240e+02 1.0000000000e+02 0.0000e+00 0.0000e+00
   -10002  1    1    2    0    0 -2.3609112237e+01 -5.3989213638e+01 +1.2575185356e+02 1.7113080974e+02 1.0000000000e+02 0.0000e+00 0.0000e+00
<mgrwt>
<rscale>  0 0.41435596E+03</rscale>
<asrwt>0</asrwt>
<pdfrwt beam="1">  1        4 0.20146229E-01 0.41435596E+03</pdfrwt>
<pdfrwt beam="2">  1       -4 0.13315990E+00 0.41435596E+03</pdfrwt>
<totfact> 0.17956142E+01</totfact>
</mgrwt>
</event>
<event>
 6      1 +2.6141198e-09 4.57416500e+02 7.81860800e-03 1.02553300e-01
        4 -1    0    0  501    0 +0.0000000000e+00 +0.0000000000e+00 +6.5411691592e+02 6.5411814881e+02 1.2700000000e+00 0.0000e+00 -1.0000e+00
       -4 -1    0    0    0  501 -0.0000000000e+00 -0.0000000000e+00 -7.9960177931e+01 7.9970262941e+01 1.2700000000e+00 0.0000e+00 -1.0000e+00
      -13  1    1    2    0    0 +1.4093727052e+01 -6.9419348081e+01 +2.0467611698e+02 2.1658717196e+02 1.0566000000e-01 0.0000e+00 -1.0000e+00
       13  1    1    2    0    0 +6.7823787180e+01 +2.7636475890e+01 +1.6048028244e+02 1.7640230476e+02 1.0566000000e-01 0.0000e+00 1.0000e+00
    10002  1    1    2    0    0 +1.7998366053e+01 +2.5014575109e+01 +2.3455367962e+01 1.0723723437e+02 1.0000000000e+02 0.0000e+00 0.0000e+00
   -10002  1    1    2    0    0 -9.9915880284e+01 +1.6768297082e+01 +1.8554497061e+02 2.3386170066e+02 1.0000000000e+02 0.0000e+00 0.0000e+00
<mgrwt>
<rscale>  0 0.45741648E+03</rscale>
<asrwt>0</asrwt>
<pdfrwt beam="1">  1        4 0.16353064E+00 0.45741648E+03</pdfrwt>
<pdfrwt beam="2">  1       -4 0.19991459E-01 0.45741648E+03</pdfrwt>
<totfact> 0.10681798E+01</totfact>
</mgrwt>
</event>
<event>
 6      1 +2.6141198e-09 6.13267400e+02 7.81860800e-03 9.87825600e-02
       -4 -1    0    0    0  501 -0.0000000000e+00 +0.0000000000e+00 +4.8364592907e+02 4.8364759651e+02 1.2700000000e+00 0.0000e+00 1.0000e+00
        4 -1    0    0  501    0 +0.0000000000e+00 -0.0000000000e+00 -1.9440309490e+02 1.9440724320e+02 1.2700000000e+00 0.0000e+00 1.0000e+00
      -13  1    1    2    0    0 +3.0581759423e+01 +1.7700799483e+00 +6.5003772182e+01 7.1860133276e+01 1.0566000000e-01 0.0000e+00 1.0000e+00
       13  1    1    2    0    0 +7.6899443152e+01 -8.6978394614e+01 +4.5402004162e+01 1.2466001216e+02 1.0566000000e-01 0.0000e+00 -1.0000e+00
    10002  1    1    2    0    0 -2.4497356274e+02 +4.6957830686e+01 +7.6343869938e+01 2.7936619477e+02 1.0000000000e+02 0.0000e+00 0.0000e+00
   -10002  1    1    2    0    0 +1.3749236016e+02 +3.8250483979e+01 +1.0249318788e+02 2.0216849950e+02 1.0000000000e+02 0.0000e+00 0.0000e+00
<mgrwt>
<rscale>  0 0.61326744E+03</rscale>
<asrwt>0</asrwt>
<pdfrwt beam="1">  1        4 0.48601501E-01 0.61326744E+03</pdfrwt>
<pdfrwt beam="2">  1       -4 0.12091221E+00 0.61326744E+03</pdfrwt>
<totfact> 0.41757947E+00</totfact>
</mgrwt>
</event>
<event>
 6      1 +2.6141198e-09 4.28500600e+02 7.81860800e-03 1.03433500e-01
       -4 -1    0    0    0  501 -0.0000000000e+00 +0.0000000000e+00 +1.2903119476e+02 1.2903744465e+02 1.2700000000e+00 0.0000e+00 1.0000e+00
        4 -1    0    0  501    0 +0.0000000000e+00 -0.0000000000e+00 -3.5573671757e+02 3.5573898454e+02 1.2700000000e+00 0.0000e+00 1.0000e+00
      -13  1    1    2    0    0 -2.3700283460e+01 -3.0871841402e+01 +2.0964964184e+01 4.4207634125e+01 1.0566000000e-01 0.0000e+00 -1.0000e+00
       13  1    1    2    0    0 +2.1247998151e+01 +7.3629239773e+01 -4.7923118933e+01 9.0384616320e+01 1.0566000000e-01 0.0000e+00 1.0000e+00
    10002  1    1    2    0    0 +4.5946536842e+01 +4.1054641773e+01 -1.2885355011e+01 1.1816344711e+02 1.0000000000e+02 0.0000e+00 0.0000e+00
   -10002  1    1    2    0    0 -4.3494251533e+01 -8.3812040144e+01 -1.8686201305e+02 2.3202073164e+02 1.0000000000e+02 0.0000e+00 0.0000e+00
<mgrwt>
<rscale>  0 0.42850063E+03</rscale>
<asrwt>0</asrwt>
<pdfrwt beam="1">  1        4 0.88935242E-01 0.42850063E+03</pdfrwt>
<pdfrwt beam="2">  1       -4 0.32258864E-01 0.42850063E+03</pdfrwt>
<totfact> 0.19593627E+01</totfact>
</mgrwt>
</event>
<event>
 6      1 +2.6141198e-09 5.85267600e+02 7.81860800e-03 9.93645200e-02
       -4 -1    0    0    0  501 -0.0000000000e+00 +0.0000000000e+00 +7.0286525526e+02 7.0286640264e+02 1.2700000000e+00 0.0000e+00 -1.0000e+00
        4 -1    0    0  501    0 +0.0000000000e+00 -0.0000000000e+00 -1.2183178415e+02 1.2183840334e+02 1.2700000000e+00 0.0000e+00 -1.0000e+00
      -13  1    1    2    0    0 +1.9212384570e+00 -4.0235346041e+01 -2.7919760378e+01 4.9011207003e+01 1.0566000000e-01 0.0000e+00 1.0000e+00
       13  1    1    2    0    0 +8.5845095229e+01 +4.5072393212e+01 +5.6270481554e+01 1.1210387711e+02 1.0566000000e-01 0.0000e+00 -1.0000e+00
    10002  1    1    2    0    0 +3.2073503715e+01 -1.0056826104e+02 +1.0337880788e+02 1.7840925617e+02 1.0000000000e+02 0.0000e+00 0.0000e+00
   -10002  1    1    2    0    0 -1.1983983740e+02 +9.5731213870e+01 +4.4930394206e+02 4.8518046569e+02 1.0000000000e+02 0.0000e+00 0.0000e+00
<mgrwt>
<rscale>  0 0.58526756E+03</rscale>
<asrwt>0</asrwt>
<pdfrwt beam="1">  1        4 0.30458918E-01 0.58526756E+03</pdfrwt>
<pdfrwt beam="2">  1       -4 0.17571728E+00 0.58526756E+03</pdfrwt>
<totfact> 0.39819244E+00</totfact>
</mgrwt>
</event>
<event>
 6      1 +2.6141198e-09 4.25109600e+02 7.81860800e-03 1.03541600e-01
       -4 -1    0    0    0  501 -0.0000000000e+00 +0.0000000000e+00 +1.5456444662e+02 1.5456966410e+02 1.2700000000e+00 0.0000e+00 1.0000e+00
        4 -1    0    0  501    0 +0.0000000000e+00 -0.0000000000e+00 -2.9229076965e+02 2.9229352870e+02 1.2700000000e+00 0.0000e+00 1.0000e+00
      -13  1    1    2    0    0 -3.5534890119e+01 +3.4263098208e+01 +4.2790390150e+00 4.9548053983e+01 1.0566000000e-01 0.0000e+00 1.0000e+00
       13  1    1    2    0    0 +2.2870028414e+00 -3.4102059512e+01 -6.8817303881e+01 7.6837577541e+01 1.0566000000e-01 0.0000e+00 -1.0000e+00
    10002  1    1    2    0    0 -1.5524794889e+01 -9.6111341843e+01 +2.7656113923e+01 1.4227884567e+02 1.0000000000e+02 0.0000e+00 0.0000e+00
   -10002  1    1    2    0    0 +4.8772682166e+01 +9.5950303147e+01 -1.0084417208e+02 1.7819871560e+02 1.0000000000e+02 0.0000e+00 0.0000e+00
<mgrwt>
<rscale>  0 0.42510960E+03</rscale>
<asrwt>0</asrwt>
<pdfrwt beam="1">  1        4 0.73073689E-01 0.42510960E+03</pdfrwt>
<pdfrwt beam="2">  1       -4 0.38642109E-01 0.42510960E+03</pdfrwt>
<totfact> 0.21400754E+01</totfact>
</mgrwt>
</event>
<event>
 6      1 +2.6141198e-09 4.41843700e+02 7.81860800e-03 1.03018300e-01
        4 -1    0    0  501    0 +0.0000000000e+00 +0.0000000000e+00 +3.6859782072e+02 3.6860000860e+02 1.2700000000e+00 0.0000e+00 -1.0000e+00
       -4 -1    0    0    0  501 -0.0000000000e+00 -0.0000000000e+00 -1.3240555839e+02 1.3241164901e+02 1.2700000000e+00 0.0000e+00 -1.0000e+00
      -13  1    1    2    0    0 +4.3817769137e+01 +1.0613536018e+02 +2.2255648180e+01 1.1696168865e+02 1.0566000000e-01 0.0000e+00 1.0000e+00
       13  1    1    2    0    0 +4.8849630329e+01 -2.0454184067e+01 +1.1255521813e+01 5.4142016627e+01 1.0566000000e-01 0.0000e+00 -1.0000e+00
    10002  1    1    2    0    0 -2.8595005690e+01 -8.0653806400e+01 +6.1290333600e+01 1.4518683077e+02 1.0000000000e+02 0.0000e+00 0.0000e+00
   -10002  1    1    2    0    0 -6.4072393777e+01 -5.0273697118e+00 +1.4139075873e+02 1.8472112155e+02 1.0000000000e+02 0.0000e+00 0.0000e+00
<mgrwt>
<rscale>  0 0.44184375E+03</rscale>
<asrwt>0</asrwt>
<pdfrwt beam="1">  1        4 0.92150489E-01 0.44184375E+03</pdfrwt>
<pdfrwt beam="2">  1       -4 0.33102425E-01 0.44184375E+03</pdfrwt>
<totfact> 0.17190594E+01</totfact>
</mgrwt>
</event>
<event>
 6      1 +2.6141198e-09 6.29409000e+02 7.81860800e-03 9.84620300e-02
        4 -1    0    0  501    0 +0.0000000000e+00 +0.0000000000e+00 +2.7154512967e+02 2.7154809951e+02 1.2700000000e+00 0.0000e+00 1.0000e+00
       -4 -1    0    0    0  501 -0.0000000000e+00 -0.0000000000e+00 -3.6471752374e+02 3.6471973490e+02 1.2700000000e+00 0.0000e+00 1.0000e+00
      -13  1    1    2    0    0 -1.9772339221e+01 +6.5640118109e+01 +1.4078596441e+01 6.9984202113e+01 1.0566000000e-01 0.0000e+00 1.0000e+00
       13  1    1    2    0    0 -5.9503922324e+00 -3.9487577758e+01 +1.9362858438e+01 4.4380259303e+01 1.0566000000e-01 0.0000e+00 -1.0000e+00
    10002  1    1    2    0    0 +9.3599680305e+01 -3.4767013199e+01 +1.5835739837e+02 2.1224210463e+02 1.0000000000e+02 0.0000e+00 0.0000e+00
   -10002  1    1    2    0    0 -6.7876948851e+01 +8.6144728481e+00 -2.8497124732e+02 3.0966126837e+02 1.0000000000e+02 0.0000e+00 0.0000e+00
<mgrwt>
<rscale>  0 0.62940898E+03</rscale>
<asrwt>0</asrwt>
<pdfrwt beam="1">  1        4 0.67886930E-01 0.62940898E+03</pdfrwt>
<pdfrwt beam="2">  1       -4 0.91180028E-01 0.62940898E+03</pdfrwt>
<totfact> 0.40331549E+00</totfact>
</mgrwt>
</event>
<event>
 6      1 +2.6141198e-09 3.59312000e+02 7.81860800e-03 1.05885700e-01
        4 -1    0    0  501    0 +0.0000000000e+00 +0.0000000000e+00 +3.7005721782e+01 3.7027507945e+01 1.2700000000e+00 0.0000e+00 1.0000e+00
       -4 -1    0    0    0  501 -0.0000000000e+00 -0.0000000000e+00 -8.7191825527e+02 8.7191918018e+02 1.2700000000e+00 0.0000e+00 1.0000e+00
      -13  1    1    2    0    0 -4.3185639611e+01 -1.5744104130e+01 -1.0902586896e+02 1.1831959918e+02 1.0566000000e-01 0.0000e+00 -1.0000e+00
       13  1    1    2    0    0 +3.3346448901e+01 +1.5580546549e+01 -1.9821463064e+02 2.0160305070e+02 1.0566000000e-01 0.0000e+00 1.0000e+00
    10002  1    1    2    0    0 -7.0964692190e+01 -3.0698985366e+01 -3.0339246858e+02 3.2867218505e+02 1.0000000000e+02 0.0000e+00 0.0000e+00
   -10002  1    1    2    0    0 +8.0803882900e+01 +3.0862542947e+01 -2.2427956531e+02 2.6035185320e+02 1.0000000000e+02 0.0000e+00 0.0000e+00
<mgrwt>
<rscale>  0 0.35931204E+03</rscale>
<asrwt>0</asrwt>
<pdfrwt beam="1">  1        4 0.92542722E-02 0.35931204E+03</pdfrwt>
<pdfrwt beam="2">  1       -4 0.21798234E+00 0.35931204E+03</pdfrwt>
<totfact> 0.17933968E+01</totfact>
</mgrwt>
</event>
<event>
 6      1 +2.6141198e-09 6.15613100e+02 7.81860800e-03 9.87353300e-02
        4 -1    0    0  501    0 +0.0000000000e+00 +0.0000000000e+00 +2.9334025056e+02 2.9334299974e+02 1.2700000000e+00 0.0000e+00 1.0000e+00
       -4 -1    0    0    0  501 -0.0000000000e+00 -0.0000000000e+00 -3.2298077681e+02 3.2298327370e+02 1.2700000000e+00 0.0000e+00 1.0000e+00
      -13  1    1    2    0    0 -6.1277175209e+01 +1.8043707299e+01 +2.7944463531e+00 6.3939719026e+01 1.0566000000e-01 0.0000e+00 1.0000e+00
       13  1    1    2    0    0 -4.4173113341e+01 -9.8016090861e+01 -2.2307533325e+01 1.0980006929e+02 1.0566000000e-01 0.0000e+00 -1.0000e+00
    10002  1    1    2    0    0 +2.0965776271e+02 +1.5212965027e+02 -3.2619684485e+01 2.7957798871e+02 1.0000000000e+02 0.0000e+00 0.0000e+00
   -10002  1    1    2    0    0 -1.0420747416e+02 -7.2157266710e+01 +2.2492245202e+01 1.6300849641e+02 1.0000000000e+02 0.0000e+00 0.0000e+00
<mgrwt>
<rscale>  0 0.61561312E+03</rscale>
<asrwt>0</asrwt>
<pdfrwt beam="1">  1        4 0.73335719E-01 0.61561312E+03</pdfrwt>
<pdfrwt beam="2">  1       -4 0.80745850E-01 0.61561312E+03</pdfrwt>
<totfact> 0.44946548E+00</totfact>
</mgrwt>
</event>
<event>
 6      1 +2.6141198e-09 5.39795100e+02 7.81860800e-03 1.00388400e-01
        4 -1    0    0  501    0 +0.0000000000e+00 +0.0000000000e+00 +3.5842664627e+02 3.5842889623e+02 1.2700000000e+00 0.0000e+00 -1.0000e+00
       -4 -1    0    0    0  501 -0.0000000000e+00 -0.0000000000e+00 -2.0322973608e+02 2.0323370421e+02 1.2700000000e+00 0.0000e+00 -1.0000e+00
      -13  1    1    2    0    0 +4.5080398530e+01 -1.8960666496e+00 +1.7996437015e+02 1.8553442562e+02 1.0566000000e-01 0.0000e+00 -1.0000e+00
       13  1    1    2    0    0 -5.8947848388e+00 +1.9271870151e+01 -4.1015526842e+00 2.0566656653e+01 1.0566000000e-01 0.0000e+00 1.0000e+00
    10002  1    1    2    0    0 -9.4693728276e+01 -7.8965485184e+01 -1.1413877882e+02 1.9552521795e+02 1.0000000000e+02 0.0000e+00 0.0000e+00
   -10002  1    1    2    0    0 +5.5508114585e+01 +6.1589681683e+01 +9.3472871539e+01 1.6003630022e+02 1.0000000000e+02 0.0000e+00 0.0000e+00
<mgrwt>
<rscale>  0 0.53979514E+03</rscale>
<asrwt>0</asrwt>
<pdfrwt beam="1">  1        4 0.89607438E-01 0.53979514E+03</pdfrwt>
<pdfrwt beam="2">  1       -4 0.50808212E-01 0.53979514E+03</pdfrwt>
<totfact> 0.77908412E+00</totfact>
</mgrwt>
</event>
<event>
 6      1 +2.6141198e-09 6.48184800e+02 7.81860800e-03 9.81019100e-02
       -4 -1    0    0    0  501 -0.0000000000e+00 +0.0000000000e+00 +2.0721827688e+02 2.0722216864e+02 1.2700000000e+00 0.0000e+00 -1.0000e+00
        4 -1    0    0  501    0 +0.0000000000e+00 -0.0000000000e+00 -5.0687584768e+02 5.0687743870e+02 1.2700000000e+00 0.0000e+00 -1.0000e+00
      -13  1    1    2    0    0 +1.3911542666e+01 -3.0070636083e+01 -6.0591938397e+00 3.3682327233e+01 1.0566000000e-01 0.0000e+00 1.0000e+00
       13  1    1    2    0    0 +1.0180500386e+02 +5.2737773598e+01 +7.0020782260e+01 1.3434452980e+02 1.0566000000e-01 0.0000e+00 -1.0000e+00
    10002  1    1    2    0    0 -6.0200046650e+01 +8.2865926082e+01 -3.6326008837e+02 3.9044679423e+02 1.0000000000e+02 0.0000e+00 0.0000e+00
   -10002  1    1    2    0    0 -5.5516499878e+01 -1.0553306360e+02 -3.5907084543e-01 1.5562595607e+02 1.0000000000e+02 0.0000e+00 0.0000e+00
<mgrwt>
<rscale>  0 0.64818484E+03</rscale>
<asrwt>0</asrwt>
<pdfrwt beam="1">  1        4 0.12671964E+00 0.64818484E+03</pdfrwt>
<pdfrwt beam="2">  1       -4 0.51805256E-01 0.64818484E+03</pdfrwt>
<totfact> 0.32501109E+00</totfact>
</mgrwt>
</event>
<event>
 6      1 +2.6141198e-09 5.42549700e+02 7.81860800e-03 1.00323300e-01
        4 -1    0    0  501    0 +0.0000000000e+00 +0.0000000000e+00 +6.2023208734e+01 6.2036209762e+01 1.2700000000e+00 0.0000e+00 1.0000e+00
       -4 -1    0    0    0  501 -0.0000000000e+00 -0.0000000000e+00 -1.1863544657e+03 1.1863551455e+03 1.2700000000e+00 0.0000e+00 1.0000e+00
      -13  1    1    2    0    0 -9.6242258997e+00 +3.7893545411e+01 -4.4684238939e+00 3.9351295837e+01 1.0566000000e-01 0.0000e+00 1.0000e+00
       13  1    1    2    0    0 +2.0369736000e+01 -5.2566268942e+01 -9.1965688721e+01 1.0786954084e+02 1.0566000000e-01 0.0000e+00 -1.0000e+00
    10002  1    1    2    0    0 +4.4662368852e+01 -3.0861785743e+00 -9.6160897903e+02 9.6783060514e+02 1.0000000000e+02 0.0000e+00 0.0000e+00
   -10002  1    1    2    0    0 -5.5407878952e+01 +1.7758902105e+01 -6.6288165361e+01 1.3333991346e+02 1.0000000000e+02 0.0000e+00 0.0000e+00
<mgrwt>
<rscale>  0 0.54254972E+03</rscale>
<asrwt>0</asrwt>
<pdfrwt beam="1">  1        4 0.15507516E-01 0.54254972E+03</pdfrwt>
<pdfrwt beam="2">  1       -4 0.29659025E+00 0.54254972E+03</pdfrwt>
<totfact> 0.24494225E+00</totfact>
</mgrwt>
</event>
<event>
 6      1 +2.6141198e-09 5.05141300e+02 7.81860800e-03 1.01244600e-01
       -4 -1    0    0    0  501 -0.0000000000e+00 +0.0000000000e+00 +1.3816095461e+02 1.3816679152e+02 1.2700000000e+00 0.0000e+00 -1.0000e+00
        4 -1    0    0  501    0 +0.0000000000e+00 -0.0000000000e+00 -4.6170544453e+02 4.6170719120e+02 1.2700000000e+00 0.0000e+00 -1.0000e+00
      -13  1    1    2    0    0 +2.2532363115e+01 -2.6116803853e+01 -3.1274480180e+00 3.4635053431e+01 1.0566000000e-01 0.0000e+00 -1.0000e+00
       13  1    1    2    0    0 -2.7485972515e+01 -1.0544039642e+02 -1.9199061194e+02 2.2075679405e+02 1.0566000000e-01 0.0000e+00 1.0000e+00
    10002  1    1    2    0    0 -7.8441176835e+01 +1.0271737761e+02 -6.1234928230e+00 1.6352790298e+02 1.0000000000e+02 0.0000e+00 0.0000e+00
   -10002  1    1    2    0    0 +8.3394786235e+01 +2.8839822656e+01 -1.2230293714e+02 1.8095423227e+02 1.0000000000e+02 0.0000e+00 0.0000e+00
<mgrwt>
<rscale>  0 0.50514132E+03</rscale>
<asrwt>0</asrwt>
<pdfrwt beam="1">  1        4 0.11542731E+00 0.50514132E+03</pdfrwt>
<pdfrwt beam="2">  1       -4 0.34541188E-01 0.50514132E+03</pdfrwt>
<totfact> 0.92947136E+00</totfact>
</mgrwt>
</event>
<event>
 6      1 +2.6141198e-09 5.26192900e+02 7.81860800e-03 1.00716000e-01
       -4 -1    0    0    0  501 -0.0000000000e+00 +0.0000000000e+00 +8.3872936050e+02 8.3873032202e+02 1.2700000000e+00 0.0000e+00 1.0000e+00
        4 -1    0    0  501    0 +0.0000000000e+00 -0.0000000000e+00 -8.2523394455e+01 8.2533166257e+01 1.2700000000e+00 0.0000e+00 1.0000e+00
      -13  1    1    2    0    0 +4.9492710357e+01 +1.4015499205e+01 +7.6897402252e+01 9.2515859363e+01 1.0566000000e-01 0.0000e+00 1.0000e+00
       13  1    1    2    0    0 -3.2257052196e+01 -3.3161509085e+01 +1.4861252001e+02 1.5564670047e+02 1.0566000000e-01 0.0000e+00 -1.0000e+00
    10002  1    1    2    0    0 +1.1464229751e+02 +1.3504200038e+02 +3.3432572560e+02 3.9134752975e+02 1.0000000000e+02 0.0000e+00 0.0000e+00
   -10002  1    1    2    0    0 -1.3187795567e+02 -1.1589599050e+02 +1.9637031819e+02 2.8175339869e+02 1.0000000000e+02 0.0000e+00 0.0000e+00
<mgrwt>
<rscale>  0 0.52619288E+03</rscale>
<asrwt>0</asrwt>
<pdfrwt beam="1">  1        4 0.20632191E-01 0.52619288E+03</pdfrwt>
<pdfrwt beam="2">  1       -4 0.20968368E+00 0.52619288E+03</pdfrwt>
<totfact> 0.49472623E+00</totfact>
</mgrwt>
</event>
<event>
 6      1 +2.6141198e-09 3.91742300e+02 7.81860800e-03 1.04667700e-01
       -4 -1    0    0    0  501 -0.0000000000e+00 +0.0000000000e+00 +2.0159582793e+02 2.0159982822e+02 1.2700000000e+00 0.0000e+00 -1.0000e+00
        4 -1    0    0  501    0 +0.0000000000e+00 -0.0000000000e+00 -1.9030104537e+02 1.9030528309e+02 1.2700000000e+00 0.0000e+00 -1.0000e+00
      -13  1    1    2    0    0 +1.6548007236e+01 +2.5545087440e+01 -9.9770694135e+00 3.2030315545e+01 1.0566000000e-01 0.0000e+00 -1.0000e+00
       13  1    1    2    0    0 -9.8568432079e+01 -1.1631179828e+01 -2.1823112150e+00 9.9276350622e+01 1.0566000000e-01 0.0000e+00 1.0000e+00
    10002  1    1    2    0    0 +8.9869749445e+01 -1.4989153085e+01 -4.1005247996e+01 1.4136009670e+02 1.0000000000e+02 0.0000e+00 0.0000e+00
   -10002  1    1    2    0    0 -7.8493246020e+00 +1.0752454721e+00 +6.4459411182e+01 1.1923834844e+02 1.0000000000e+02 0.0000e+00 0.0000e+00
<mgrwt>
<rscale>  0 0.39174232E+03</rscale>
<asrwt>0</asrwt>
<pdfrwt beam="1">  1        4 0.47576291E-01 0.39174232E+03</pdfrwt>
<pdfrwt beam="2">  1       -4 0.50399987E-01 0.39174232E+03</pdfrwt>
<totfact> 0.30995221E+01</totfact>
</mgrwt>
</event>
<event>
 6      1 +2.6141198e-09 3.87648200e+02 7.81860800e-03 1.04814300e-01
       -4 -1    0    0    0  501 -0.0000000000e+00 +0.0000000000e+00 +1.1171011944e+03 1.1171019163e+03 1.2700000000e+00 0.0000e+00 1.0000e+00
        4 -1    0    0  501    0 +0.0000000000e+00 -0.0000000000e+00 -3.3616986922e+01 3.3640967728e+01 1.2700000000e+00 0.0000e+00 1.0000e+00
      -13  1    1    2    0    0 -2.1073276926e+01 -2.8011818693e+01 +1.9106550377e+02 1.9425442821e+02 1.0566000000e-01 0.0000e+00 1.0000e+00
       13  1    1    2    0    0 +3.1442596363e+01 +1.8986437444e+01 +2.3071761954e+01 4.3375558054e+01 1.0566000000e-01 0.0000e+00 -1.0000e+00
    10002  1    1    2    0    0 +5.0879696462e+00 +1.0102600738e+02 +4.6454778074e+02 4.8583616806e+02 1.0000000000e+02 0.0000e+00 0.0000e+00
   -10002  1    1    2    0    0 -1.5457289083e+01 -9.2000626133e+01 +4.0479916101e+02 4.2727672970e+02 1.0000000000e+02 0.0000e+00 0.0000e+00
<mgrwt>
<rscale>  0 0.38764824E+03</rscale>
<asrwt>0</asrwt>
<pdfrwt beam="1">  1        4 0.84073347E-02 0.38764824E+03</pdfrwt>
<pdfrwt beam="2">  1       -4 0.27927838E+00 0.38764824E+03</pdfrwt>
<totfact> 0.90380378E+00</totfact>
</mgrwt>
</event>
<event>
 6      1 +2.6141198e-09 3.97678500e+02 7.81860800e-03 1.04458600e-01
        4 -1    0    0  501    0 +0.0000000000e+00 +0.0000000000e+00 +2.3591612576e+02 2.3591954411e+02 1.2700000000e+00 0.0000e+00 -1.0000e+00
       -4 -1    0    0    0  501 -0.0000000000e+00 -0.0000000000e+00 -1.6758241384e+02 1.6758722603e+02 1.2700000000e+00 0.0000e+00 -1.0000e+00
      -13  1    1    2    0    0 -4.4461583582e+01 +4.6970008069e+01 +2.3030243710e+01 6.8654332435e+01 1.0566000000e-01 0.0000e+00 1.0000e+00
       13  1    1    2    0    0 +9.8566271166e+00 -1.0754049201e+01 -4.9480999794e+01 5.1586656967e+01 1.0566000000e-01 0.0000e+00 -1.0000e+00
    10002  1    1    2    0    0 -2.7704535495e+01 +5.4374806772e+01 +2.8715866364e+01 1.2061824853e+02 1.0000000000e+02 0.0000e+00 0.0000e+00
   -10002  1    1    2    0    0 +6.2309491961e+01 -9.0590765640e+01 +6.6068601645e+01 1.6264753220e+02 1.0000000000e+02 0.0000e+00 0.0000e+00
<mgrwt>
<rscale>  0 0.39767854E+03</rscale>
<asrwt>0</asrwt>
<pdfrwt beam="1">  1        4 0.58980060E-01 0.39767854E+03</pdfrwt>
<pdfrwt beam="2">  1       -4 0.41896632E-01 0.39767854E+03</pdfrwt>
<totfact> 0.28877935E+01</totfact>
</mgrwt>
</event>
<event>
 6      1 +2.6141198e-09 4.31045500e+02 7.81860800e-03 1.03353000e-01
        4 -1    0    0  501    0 +0.0000000000e+00 +0.0000000000e+00 +4.6580319384e+02 4.6580492515e+02 1.2700000000e+00 0.0000e+00 -1.0000e+00
       -4 -1    0    0    0  501 -0.0000000000e+00 -0.0000000000e+00 -9.9714367078e+01 9.9722454351e+01 1.2700000000e+00 0.0000e+00 -1.0000e+00
      -13  1    1    2    0    0 +1.3038488068e+01 -5.9497704783e+01 +3.5118111184e+01 7.0308405918e+01 1.0566000000e-01 0.0000e+00 1.0000e+00
       13  1    1    2    0    0 -5.4956187369e+01 +2.7987835593e+01 +2.5598695775e+01 6.6774290417e+01 1.0566000000e-01 0.0000e+00 -1.0000e+00
    10002  1    1    2    0    0 +8.7751947634e+01 +6.7563218165e+01 +2.6810751598e+02 3.0683355893e+02 1.0000000000e+02 0.0000e+00 0.0000e+00
   -10002  1    1    2    0    0 -4.5834248333e+01 -3.6053348976e+01 +3.7264503831e+01 1.2161112424e+02 1.0000000000e+02 0.0000e+00 0.0000e+00
<mgrwt>
<rscale>  0 0.43104546E+03</rscale>
<asrwt>0</asrwt>
<pdfrwt beam="1">  1        4 0.11645202E+00 0.43104546E+03</pdfrwt>
<pdfrwt beam="2">  1       -4 0.24929819E-01 0.43104546E+03</pdfrwt>
<totfact> 0.16913251E+01</totfact>
</mgrwt>
</event>
<event>
 6      1 +2.6141198e-09 5.07850200e+02 7.81860800e-03 1.01175000e-01
       -4 -1    0    0    0  501 -0.0000000000e+00 +0.0000000000e+00 +3.7987157058e+02 3.7987369353e+02 1.2700000000e+00 0.0000e+00 -1.0000e+00
        4 -1    0    0  501    0 +0.0000000000e+00 -0.0000000000e+00 -1.6973121985e+02 1.6973597111e+02 1.2700000000e+00 0.0000e+00 -1.0000e+00
      -13  1    1    2    0    0 +5.2386497365e+01 +5.3265470652e+01 +1.0817133908e+02 1.3146332276e+02 1.0566000000e-01 0.0000e+00 -1.0000e+00
       13  1    1    2    0    0 -8.4011975235e+00 -2.9266785740e+01 +1.3243185878e+01 3.3204186537e+01 1.0566000000e-01 0.0000e+00 1.0000e+00
    10002  1    1    2    0    0 -5.3507506083e+00 -7.2501639295e+01 -1.0237782383e+02 1.6051896164e+02 1.0000000000e+02 0.0000e+00 0.0000e+00
   -10002  1    1    2    0    0 -3.8634549233e+01 +4.8502954383e+01 +1.9110364961e+02 2.2442319371e+02 1.0000000000e+02 0.0000e+00 0.0000e+00
<mgrwt>
<rscale>  0 0.50785019E+03</rscale>
<asrwt>0</asrwt>
<pdfrwt beam="1">  1        4 0.42433665E-01 0.50785019E+03</pdfrwt>
<pdfrwt beam="2">  1       -4 0.94968751E-01 0.50785019E+03</pdfrwt>
<totfact> 0.98383002E+00</totfact>
</mgrwt>
</event>
<event>
 6      1 +2.6141198e-09 4.92112900e+02 7.81860800e-03 1.01585800e-01
        4 -1    0    0  501    0 +0.0000000000e+00 +0.0000000000e+00 +6.6100734446e+02 6.6100856449e+02 1.2700000000e+00 0.0000e+00 1.0000e+00
       -4 -1    0    0    0  501 -0.0000000000e+00 -0.0000000000e+00 -9.1587494235e+01 9.1596299053e+01 1.2700000000e+00 0.0000e+00 1.0000e+00
      -13  1    1    2    0    0 +1.0394444911e+01 -4.5541408438e+01 +6.8204067422e+00 4.7207981101e+01 1.0566000000e-01 0.0000e+00 -1.0000e+00
       13  1    1    2    0    0 -3.1155968209e+01 +4.6371267986e+01 +7.4602267714e+01 9.3201386050e+01 1.0566000000e-01 0.0000e+00 1.0000e+00
    10002  1    1    2    0    0 -1.1847595776e+02 -8.3553451618e+01 +1.9459178481e+02 2.6245703374e+02 1.0000000000e+02 0.0000e+00 0.0000e+00
   -10002  1    1    2    0    0 +1.3923748106e+02 +8.2723592070e+01 +2.9340539096e+02 3.4973846266e+02 1.0000000000e+02 0.0000e+00 0.0000e+00
<mgrwt>
<rscale>  0 0.49211291E+03</rscale>
<asrwt>0</asrwt>
<pdfrwt beam="1">  1        4 0.16525309E+00 0.49211291E+03</pdfrwt>
<pdfrwt beam="2">  1       -4 0.22898127E-01 0.49211291E+03</pdfrwt>
<totfact> 0.80950832E+00</totfact>
</mgrwt>
</event>
<event>
 6      1 +2.6141198e-09 6.22988900e+02 7.81860800e-03 9.85882700e-02
        4 -1    0    0  501    0 +0.0000000000e+00 +0.0000000000e+00 +1.5845983476e+03 1.5845988565e+03 1.2700000000e+00 0.0000e+00 -1.0000e+00
       -4 -1    0    0    0  501 -0.0000000000e+00 -0.0000000000e+00 -6.1225311756e+01 6.1238482179e+01 1.2700000000e+00 0.0000e+00 -1.0000e+00
      -13  1    1    2    0    0 +9.3806917881e+01 -1.0203652909e+02 +6.9826246762e+02 7.1188599927e+02 1.0566000000e-01 0.0000e+00 1.0000e+00
       13  1    1    2    0    0 +4.7740519421e+01 +1.4664554809e+01 +1.3823807700e+02 1.4698293594e+02 1.0566000000e-01 0.0000e+00 -1.0000e+00
    10002  1    1    2    0    0 +3.9019567911e+00 -3.9841675526e+01 +5.9754632427e+01 1.2317954567e+02 1.0000000000e+02 0.0000e+00 0.0000e+00
   -10002  1    1    2    0    0 -1.4544939409e+02 +1.2721364981e+02 +6.2711785878e+02 6.6378885780e+02 1.0000000000e+02 0.0000e+00 0.0000e+00
<mgrwt>
<rscale>  0 0.62298888E+03</rscale>
<asrwt>0</asrwt>
<pdfrwt beam="1">  1        4 0.39615132E+00 0.62298888E+03</pdfrwt>
<pdfrwt beam="2">  1       -4 0.15308037E-01 0.62298888E+03</pdfrwt>
<totfact> 0.57799259E-01</totfact>
</mgrwt>
</event>
<event>
 6      1 +2.6141198e-09 5.55678300e+02 7.81860800e-03 1.00018800e-01
       -4 -1    0    0    0  501 -0.0000000000e+00 +0.0000000000e+00 +7.1124690217e+01 7.1136027852e+01 1.2700000000e+00 0.0000e+00 -1.0000e+00
        4 -1    0    0  501    0 +0.0000000000e+00 -0.0000000000e+00 -1.0852434209e+03 1.0852441640e+03 1.2700000000e+00 0.0000e+00 -1.0000e+00
      -13  1    1    2    0    0 -1.3248934938e+01 +1.5317651230e+01 -8.5318646037e+00 2.1976546449e+01 1.0566000000e-01 0.0000e+00 1.0000e+00
       13  1    1    2    0    0 +9.8122366214e+01 -6.8350687050e+00 -9.7608019134e+01 1.3857147426e+02 1.0566000000e-01 0.0000e+00 -1.0000e+00
    10002  1    1    2    0    0 +1.3406033938e+02 -4.4606601820e+00 -4.0581725486e+02 4.3895297747e+02 1.0000000000e+02 0.0000e+00 0.0000e+00
   -10002  1    1    2    0    0 -2.1893377065e+02 -4.0219223432e+00 -5.0216159212e+02 5.5687919371e+02 1.0000000000e+02 0.0000e+00 0.0000e+00
<mgrwt>
<rscale>  0 0.55567828E+03</rscale>
<asrwt>0</asrwt>
<pdfrwt beam="1">  1        4 0.27131231E+00 0.55567828E+03</pdfrwt>
<pdfrwt beam="2">  1       -4 0.17782686E-01 0.55567828E+03</pdfrwt>
<totfact> 0.27185311E+00</totfact>
</mgrwt>
</event>
<event>
 6      1 +2.6141198e-09 5.22924000e+02 7.81860800e-03 1.00796300e-01
       -4 -1    0    0    0  501 -0.0000000000e+00 +0.0000000000e+00 +1.0687060104e+02 1.0687814681e+02 1.2700000000e+00 0.0000e+00 1.0000e+00
        4 -1    0    0  501    0 +0.0000000000e+00 -0.0000000000e+00 -6.3964360970e+02 6.3964487048e+02 1.2700000000e+00 0.0000e+00 1.0000e+00
      -13  1    1    2    0    0 -9.4155042724e+01 -9.8818801265e+01 -2.3058579974e+02 2.6795549959e+02 1.0566000000e-01 0.0000e+00 1.0000e+00
       13  1    1    2    0    0 +2.2224855893e+01 -1.1653605806e+01 -2.1187114779e+01 3.2842894885e+01 1.0566000000e-01 0.0000e+00 -1.0000e+00
    10002  1    1    2    0    0 +1.5521796050e+02 +1.9074547411e+01 -1.7076849599e+02 2.5222674887e+02 1.0000000000e+02 0.0000e+00 0.0000e+00
   -10002  1    1    2    0    0 -8.3287773673e+01 +9.1397859660e+01 -1.1023159816e+02 1.9349787396e+02 1.0000000000e+02 0.0000e+00 0.0000e+00
<mgrwt>
<rscale>  0 0.52292403E+03</rscale>
<asrwt>0</asrwt>
<pdfrwt beam="1">  1        4 0.15991199E+00 0.52292403E+03</pdfrwt>
<pdfrwt beam="2">  1       -4 0.26718753E-01 0.52292403E+03</pdfrwt>
<totfact> 0.66280404E+00</totfact>
</mgrwt>
</event>
</LesHouchesEvents>
