<LesHouchesEvents version="3.0">
<header>
<!--
#*********************************************************************
#                                                                    *
#                        MadGraph5_aMC@NLO                           *
#                                                                    *
#                           Going Beyond                             *
#                                                                    *
#                   http://madgraph.hep.uiuc.edu                     *
#                   http://madgraph.phys.ucl.ac.be                   *
#                   http://amcatnlo.cern.ch                          *
#                                                                    *
#                     The MadGraph5_aMC@NLO team                     *
#                                                                    *
#....................................................................*
#                                                                    *
# This file contains all the information necessary to reproduce      *
# the events generated:                                              *
#                                                                    *
# 1. software version                                                *
# 2. proc_card          : code generation info including model       *
# 3. param_card         : model primary parameters in the LH format  *
# 4. run_card           : running parameters (collider and cuts)     *
# 5. pythia_card        : present only if pythia has been run        *
# 6. pgs_card           : present only if pgs has been run           *
# 7. delphes_cards      : present only if delphes has been run       *
#                                                                    *
#                                                                    *
#*********************************************************************
-->
<MGVersion>
2.5.5
</MGVersion>
<MG5ProcCard>
#************************************************************
#*                     MadGraph5_aMC@NLO                    *
#*                                                          *
#*                *                       *                 *
#*                  *        * *        *                   *
#*                    * * * * 5 * * * *                     *
#*                  *        * *        *                   *
#*                *                       *                 *
#*                                                          *
#*                                                          *
#*         VERSION 2.5.5                 2017-05-26         *
#*                                                          *
#*    The MadGraph5_aMC@NLO Development Team - Find us at   *
#*    https://server06.fynu.ucl.ac.be/projects/madgraph     *
#*                                                          *
#************************************************************
#*                                                          *
#*               Command File for MadGraph5_aMC@NLO         *
#*                                                          *
#*     run as ./bin/mg5_aMC  filename                       *
#*                                                          *
#************************************************************
set group_subprocesses Auto
set ignore_six_quark_processes False
set loop_optimized_output True
set loop_color_flows False
set gauge unitary
set complex_mass_scheme False
set max_npoint_for_channel 0
import model sm
define p = g u c d s u~ c~ d~ s~
define j = g u c d s u~ c~ d~ s~
define l+ = e+ mu+
define l- = e- mu-
define vl = ve vm vt
define vl~ = ve~ vm~ vt~
import model U1(lmu-ltau)/
generate p p > mu+ mu- mu+ mu-
output test1
</MG5ProcCard>
<MGProcCard>
#*********************************************************************
#                        MadGraph/MadEvent                           *
#                   http://madgraph.hep.uiuc.edu                     *
#                                                                    *
#                          proc_card.dat                             *
#*********************************************************************
#                                                                    *
#            This Files is generated by MADGRAPH 5                   *
#                                                                    *
# WARNING: This Files is generated for MADEVENT (compatibility issue)*
#          This files is NOT a valid MG4 proc_card.dat               *
#          Running this in MG4 will NEVER reproduce the result of MG5*
#                                                                    *
#*********************************************************************
#*********************************************************************
# Process(es) requested : mg2 input                                  *
#*********************************************************************
# Begin PROCESS # This is TAG. Do not modify this line
p p > mu+ mu- mu+ mu-           #Process
# Be carefull the coupling are here in MG5 convention
          
end_coup           # End the couplings input

done               # this tells MG there are no more procs
# End PROCESS  # This is TAG. Do not modify this line
#*********************************************************************
# Model information                                                  *
#*********************************************************************
# Begin MODEL  # This is TAG. Do not modify this line
U1(lmu-ltau)
# End   MODEL  # This is TAG. Do not modify this line
#*********************************************************************
# Start multiparticle definitions                                    *
#*********************************************************************
# Begin MULTIPARTICLES # This is TAG. Do not modify this line

# End  MULTIPARTICLES # This is TAG. Do not modify this line
</MGProcCard>
<MGRunCard>
#*********************************************************************
#                       MadGraph5_aMC@NLO                            *
#                                                                    *
#                     run_card.dat MadEvent                          *
#                                                                    *
#  This file is used to set the parameters of the run.               *
#                                                                    *
#  Some notation/conventions:                                        *
#                                                                    *
#   Lines starting with a '# ' are info or comments                  *
#                                                                    *
#   mind the format:   value    = variable     ! comment             *
#*********************************************************************
#
#*******************                                                 
# Running parameters
#*******************                                                 
#                                                                    
#*********************************************************************
# Tag name for the run (one word)                                    *
#*********************************************************************
  tag_1     = run_tag ! name of the run 
#*********************************************************************
# Number of events and rnd seed                                      *
# Warning: Do not generate more than 1M events in a single run       *
# If you want to run Pythia, avoid more than 50k events in a run.    *
#*********************************************************************
  1000 = nevents ! Number of unweighted events requested 
 21 = iseed   ! rnd seed (0=assigned automatically=default))
#*********************************************************************
# Collider type and energy                                           *
# lpp: 0=No PDF, 1=proton, -1=antiproton, 2=photon from proton,      *
#                                         3=photon from electron     *
#*********************************************************************
     1        = lpp1    ! beam 1 type 
     1        = lpp2    ! beam 2 type
     4000.0     = ebeam1  ! beam 1 total energy in GeV
     4000.0     = ebeam2  ! beam 2 total energy in GeV
#*********************************************************************
# Beam polarization from -100 (left-handed) to 100 (right-handed)    *
#*********************************************************************
     0.0     = polbeam1 ! beam polarization for beam 1
     0.0     = polbeam2 ! beam polarization for beam 2
#*********************************************************************
# PDF CHOICE: this automatically fixes also alpha_s and its evol.    *
#*********************************************************************
     nn23lo1    = pdlabel     ! PDF set                                     
     230000    = lhaid     ! if pdlabel=lhapdf, this is the lhapdf number
#*********************************************************************
# Renormalization and factorization scales                           *
#*********************************************************************
 False = fixed_ren_scale  ! if .true. use fixed ren scale
 False        = fixed_fac_scale  ! if .true. use fixed fac scale
 91.188  = scale            ! fixed ren scale
 91.188  = dsqrt_q2fact1    ! fixed fact scale for pdf1
 91.188  = dsqrt_q2fact2    ! fixed fact scale for pdf2
 -1 = dynamical_scale_choice ! Choose one of the preselected dynamical choices
 1.0  = scalefact        ! scale factor for event-by-event scales
#*********************************************************************
# Type and output format
#*********************************************************************
  False     = gridpack  !True = setting up the grid pack
  -1.0 = time_of_flight ! threshold (in mm) below which the invariant livetime is not written (-1 means not written)
  3.0 = lhe_version       ! Change the way clustering information pass to shower.        
  True = clusinfo         ! include clustering tag in output
  average =  event_norm       ! average/sum. Normalization of the weight in the LHEF

#*********************************************************************
# Matching parameter (MLM only)
#*********************************************************************
 0 = ickkw            ! 0 no matching, 1 MLM
 1.0 = alpsfact         ! scale factor for QCD emission vx
 False = chcluster        ! cluster only according to channel diag
 4 = asrwgtflavor     ! highest quark flavor for a_s reweight
 False  = auto_ptj_mjj  ! Automatic setting of ptj and mjj if xqcut >0
                                   ! (turn off for VBF and single top processes) 
 0.0   = xqcut   ! minimum kt jet measure between partons
#*********************************************************************
#
#*********************************************************************
# handling of the helicities:
#  0: sum over all helicities
#  1: importance sampling over helicities
#*********************************************************************
   0  = nhel          ! using helicities importance sampling or not.
#*********************************************************************
# Generation bias, check the wiki page below for more information:   *
#  'cp3.irmp.ucl.ac.be/projects/madgraph/wiki/LOEventGenerationBias' *
#*********************************************************************
 None = bias_module  ! Bias type of bias, [None, ptj_bias, -custom_folder-]
 {} = bias_parameters ! Specifies the parameters of the module.
#
#*******************************                                                 
# Parton level cuts definition *
#*******************************                                     
#                                                                    
#
#*********************************************************************
# BW cutoff (M+/-bwcutoff*Gamma) ! Define on/off-shell for "$" and decay  
#*********************************************************************
  15.0  = bwcutoff      ! (M+/-bwcutoff*Gamma)
#*********************************************************************
# Apply pt/E/eta/dr/mij/kt_durham cuts on decay products or not
# (note that etmiss/ptll/ptheavy/ht/sorted cuts always apply)
#*********************************************************************
   False  = cut_decays    ! Cut decay products 
#*********************************************************************
# Standard Cuts                                                      *
#*********************************************************************
# Minimum and maximum pt's (for max, -1 means no cut)                *
#*********************************************************************
 20.0  = ptj       ! minimum pt for the jets 
 0.0  = ptb       ! minimum pt for the b 
 10.0  = pta       ! minimum pt for the photons 
 10.0  = ptl       ! minimum pt for the charged leptons 
 0.0  = misset    ! minimum missing Et (sum of neutrino's momenta)
 0.0  = ptheavy   ! minimum pt for one heavy final state
 -1.0  = ptjmax    ! maximum pt for the jets
 -1.0  = ptbmax    ! maximum pt for the b
 -1.0  = ptamax    ! maximum pt for the photons
 -1.0  = ptlmax    ! maximum pt for the charged leptons
 -1.0  = missetmax ! maximum missing Et (sum of neutrino's momenta)
#*********************************************************************
# Minimum and maximum E's (in the center of mass frame)              *
#*********************************************************************
  0.0  = ej     ! minimum E for the jets 
  0.0  = eb     ! minimum E for the b 
  0.0  = ea     ! minimum E for the photons 
  0.0  = el     ! minimum E for the charged leptons 
  -1.0   = ejmax ! maximum E for the jets
 -1.0   = ebmax ! maximum E for the b
 -1.0   = eamax ! maximum E for the photons
 -1.0   = elmax ! maximum E for the charged leptons
#*********************************************************************
# Maximum and minimum absolute rapidity (for max, -1 means no cut)   *
#*********************************************************************
  5.0 = etaj    ! max rap for the jets 
  -1.0  = etab    ! max rap for the b
 2.5  = etaa    ! max rap for the photons 
 2.5  = etal    ! max rap for the charged leptons 
 0.0  = etajmin ! min rap for the jets
 0.0  = etabmin ! min rap for the b
 0.0  = etaamin ! min rap for the photons
 0.0  = etalmin ! main rap for the charged leptons
#*********************************************************************
# Minimum and maximum DeltaR distance                                *
#*********************************************************************
 0.4 = drjj    ! min distance between jets 
 0.0   = drbb    ! min distance between b's 
 0.4 = drll    ! min distance between leptons 
 0.4 = draa    ! min distance between gammas 
 0.0   = drbj    ! min distance between b and jet 
 0.4 = draj    ! min distance between gamma and jet 
 0.4 = drjl    ! min distance between jet and lepton 
 0.0   = drab    ! min distance between gamma and b 
 0.0   = drbl    ! min distance between b and lepton 
 0.4 = dral    ! min distance between gamma and lepton 
 -1.0  = drjjmax ! max distance between jets
 -1.0  = drbbmax ! max distance between b's
 -1.0  = drllmax ! max distance between leptons
 -1.0  = draamax ! max distance between gammas
 -1.0  = drbjmax ! max distance between b and jet
 -1.0  = drajmax ! max distance between gamma and jet
 -1.0  = drjlmax ! max distance between jet and lepton
 -1.0  = drabmax ! max distance between gamma and b
 -1.0  = drblmax ! max distance between b and lepton
 -1.0  = dralmax ! maxdistance between gamma and lepton
#*********************************************************************
# Minimum and maximum invariant mass for pairs                       *
# WARNING: for four lepton final state mmll cut require to have      *
#          different lepton masses for each flavor!                  *           
#*********************************************************************
 0.0   = mmjj    ! min invariant mass of a jet pair 
 0.0   = mmbb    ! min invariant mass of a b pair 
 0.0   = mmaa    ! min invariant mass of gamma gamma pair
 0.0   = mmll    ! min invariant mass of l+l- (same flavour) lepton pair
 -1.0  = mmjjmax ! max invariant mass of a jet pair
 -1.0  = mmbbmax ! max invariant mass of a b pair
 -1.0  = mmaamax ! max invariant mass of gamma gamma pair
 -1.0  = mmllmax ! max invariant mass of l+l- (same flavour) lepton pair
#*********************************************************************
# Minimum and maximum invariant mass for all letpons                 *
#*********************************************************************
 0.0   = mmnl    ! min invariant mass for all letpons (l+- and vl) 
 -1.0  = mmnlmax ! max invariant mass for all letpons (l+- and vl) 
#*********************************************************************
# Minimum and maximum pt for 4-momenta sum of leptons                *
#*********************************************************************
 0.0   = ptllmin  ! Minimum pt for 4-momenta sum of leptons(l and vl)
 -1.0  = ptllmax  ! Maximum pt for 4-momenta sum of leptons(l and vl)
#*********************************************************************
# Inclusive cuts                                                     *
#*********************************************************************
 0.0  = xptj ! minimum pt for at least one jet  
 0.0  = xptb ! minimum pt for at least one b 
 0.0  = xpta ! minimum pt for at least one photon 
 0.0  = xptl ! minimum pt for at least one charged lepton 
#*********************************************************************
# Control the pt's of the jets sorted by pt                          *
#*********************************************************************
 0.0   = ptj1min ! minimum pt for the leading jet in pt
 0.0   = ptj2min ! minimum pt for the second jet in pt
 0.0   = ptj3min ! minimum pt for the third jet in pt
 0.0   = ptj4min ! minimum pt for the fourth jet in pt
 -1.0  = ptj1max ! maximum pt for the leading jet in pt 
 -1.0  = ptj2max ! maximum pt for the second jet in pt
 -1.0  = ptj3max ! maximum pt for the third jet in pt
 -1.0  = ptj4max ! maximum pt for the fourth jet in pt
 0   = cutuse  ! reject event if fails any (0) / all (1) jet pt cuts
#*********************************************************************
# Control the pt's of leptons sorted by pt                           *
#*********************************************************************
 0.0   = ptl1min ! minimum pt for the leading lepton in pt
 0.0   = ptl2min ! minimum pt for the second lepton in pt
 0.0   = ptl3min ! minimum pt for the third lepton in pt
 0.0   = ptl4min ! minimum pt for the fourth lepton in pt
 -1.0  = ptl1max ! maximum pt for the leading lepton in pt 
 -1.0  = ptl2max ! maximum pt for the second lepton in pt
 -1.0  = ptl3max ! maximum pt for the third lepton in pt
 -1.0  = ptl4max ! maximum pt for the fourth lepton in pt
#*********************************************************************
# Control the Ht(k)=Sum of k leading jets                            *
#*********************************************************************
 0.0   = htjmin ! minimum jet HT=Sum(jet pt)
 -1.0  = htjmax ! maximum jet HT=Sum(jet pt)
 0.0   = ihtmin  !inclusive Ht for all partons (including b)
 -1.0  = ihtmax  !inclusive Ht for all partons (including b)
 0.0   = ht2min ! minimum Ht for the two leading jets
 0.0   = ht3min ! minimum Ht for the three leading jets
 0.0   = ht4min ! minimum Ht for the four leading jets
 -1.0  = ht2max ! maximum Ht for the two leading jets
 -1.0  = ht3max ! maximum Ht for the three leading jets
 -1.0  = ht4max ! maximum Ht for the four leading jets
#***********************************************************************
# Photon-isolation cuts, according to hep-ph/9801442                   *
# When ptgmin=0, all the other parameters are ignored                  *
# When ptgmin>0, pta and draj are not going to be used                 *
#***********************************************************************
 0.0 = ptgmin ! Min photon transverse momentum
 0.4 = R0gamma ! Radius of isolation code
 1.0 = xn ! n parameter of eq.(3.4) in hep-ph/9801442
 1.0 = epsgamma ! epsilon_gamma parameter of eq.(3.4) in hep-ph/9801442
 True = isoEM ! isolate photons from EM energy (photons and leptons)
#*********************************************************************
# WBF cuts                                                           *
#*********************************************************************
 0.0   = xetamin ! minimum rapidity for two jets in the WBF case  
 0.0   = deltaeta ! minimum rapidity for two jets in the WBF case 
#***********************************************************************
# Turn on either the ktdurham or ptlund cut to activate                *
# CKKW(L) merging with Pythia8 [arXiv:1410.3012, arXiv:1109.4829]      *
#***********************************************************************
 -1.0  =  ktdurham        
 0.4   =  dparameter
 -1.0  =  ptlund
 1, 2, 3, 4, 5, 6, 21  =  pdgs_for_merging_cut ! PDGs for two cuts above   
#*********************************************************************
# maximal pdg code for quark to be considered as a light jet         *
# (otherwise b cuts are applied)                                     *
#*********************************************************************
 4 = maxjetflavor    ! Maximum jet pdg code
#*********************************************************************
#
#*********************************************************************
# Store info for systematics studies                                 *
# WARNING: Do not use for interference type of computation           *
#*********************************************************************
   True  = use_syst      ! Enable systematics studies
#
#**************************************
# Parameter of the systematics study
#  will be used by SysCalc (if installed)
#**************************************                                  
#
0.5 1 2 = sys_scalefact  # factorization/renormalization scale factor
None = sys_alpsfact  # \alpha_s emission scale factors
auto = sys_matchscale # variation of merging scale
# PDF sets and number of members (0 or none for all members).
NNPDF23_lo_as_0130_qed = sys_pdf # list of pdf sets
# MSTW2008nlo68cl.LHgrid 1  = sys_pdf
#
</MGRunCard>
<slha>
######################################################################
## PARAM_CARD AUTOMATICALY GENERATED BY MG5 FOLLOWING UFO MODEL   ####
######################################################################
##                                                                  ##
##  Width set on Auto will be computed following the information    ##
##        present in the decay.py files of the model.               ##
##        See  arXiv:1402.1178 for more details.                    ##
##                                                                  ##
######################################################################

###################################
## INFORMATION FOR CKMBLOCK
###################################
Block ckmblock 
    1 2.277360e-01 # cabi 

###################################
## INFORMATION FOR MASS
###################################
Block mass 
    1 5.040000e-03 # MD 
    2 2.550000e-03 # MU 
    3 1.010000e-01 # MS 
    4 1.270000e+00 # MC 
    5 4.700000e+00 # MB 
    6 1.720000e+02 # MT 
   11 5.110000e-04 # Me 
   13 1.056600e-01 # MMU 
   15 1.777000e+00 # MTA 
   23 9.118760e+01 # MZ 
   25 1.250000e+02 # MH 
  10000 1.000000e+02 # MZp 
  10001 1.000000e+02 # MHmt 
  10002 1.000000e+02 # Mdm 
## Dependent parameters, given by model restrictions.
## Those values should be edited following the 
## analytical expression. MG5 ignores those values 
## but they are important for interfacing the output of MG5
## to external program such as Pythia.
  12 0.000000 # ve : 0.0 
  14 0.000000 # vm : 0.0 
  16 0.000000 # vt : 0.0 
  21 0.000000 # g : 0.0 
  22 0.000000 # a : 0.0 
  24 79.824360 # w+ : cmath.sqrt(MZ__exp__2/2. + cmath.sqrt(MZ__exp__4/4. - (aEW*cmath.pi*MZ__exp__2)/(Gf*sqrt__2))) 

###################################
## INFORMATION FOR NPINPUTS
###################################
Block npinputs 
    1 1.000000e+00 # gmt 
    1   1 8.294000e-01 # PMNS1x1 
    1   2 5.391000e-01 # PMNS1x2 
    1   3 -1.463000e-01 # PMNS1x3 
    2 2.000000e+02 # vmt 
    2   1 -3.791000e-01 # PMNS2x1 
    2   2 6.547000e-01 # PMNS2x2 
    2   3 6.539000e-01 # PMNS2x3 
    3 0.000000e+00 # amt 
    3   1 4.103000e-01 # PMNS3x1 
    3   2 -5.298000e-01 # PMNS3x2 
    3   3 7.423000e-01 # PMNS3x3 
    4 1.000000e+00 # nmt 
    5 1.000000e+00 # lamdh 
    6 1.000000e+00 # lamdh__2 
    7 1.000000e+00 # lamDM 

###################################
## INFORMATION FOR SMINPUTS
###################################
Block sminputs 
    1 1.279000e+02 # aEWM1 
    2 1.166370e-05 # Gf 
    3 1.184000e-01 # aS 

###################################
## INFORMATION FOR YUKAWA
###################################
Block yukawa 
    1 5.040000e-03 # ymdo 
    2 2.550000e-03 # ymup 
    3 1.010000e-01 # yms 
    4 1.270000e+00 # ymc 
    5 4.700000e+00 # ymb 
    6 1.720000e+02 # ymt 
   11 5.110000e-04 # yme 
   13 1.056600e-01 # ymm 
   15 1.777000e+00 # ymtau 

###################################
## INFORMATION FOR DECAY
###################################
DECAY   6 1.508336e+00 # WT 
DECAY  23 2.495200e+00 # WZ 
DECAY  24 2.085000e+00 # WW 
DECAY  25 4.070000e-03 # WH 
DECAY 10000 1.000000e+01 # WZp 
## Dependent parameters, given by model restrictions.
## Those values should be edited following the 
## analytical expression. MG5 ignores those values 
## but they are important for interfacing the output of MG5
## to external program such as Pythia.
DECAY  1 0.000000 # d : 0.0 
DECAY  2 0.000000 # u : 0.0 
DECAY  3 0.000000 # s : 0.0 
DECAY  4 0.000000 # c : 0.0 
DECAY  5 0.000000 # b : 0.0 
DECAY  11 0.000000 # e- : 0.0 
DECAY  12 0.000000 # ve : 0.0 
DECAY  13 0.000000 # mu- : 0.0 
DECAY  14 0.000000 # vm : 0.0 
DECAY  15 0.000000 # ta- : 0.0 
DECAY  16 0.000000 # vt : 0.0 
DECAY  21 0.000000 # g : 0.0 
DECAY  22 0.000000 # a : 0.0 
DECAY  10001 0.000000 # hmt : 0.0 
DECAY  10002 0.000000 # dm : 0.0 
#===========================================================
# QUANTUM NUMBERS OF NEW STATE(S) (NON SM PDG CODE)
#===========================================================

Block QNUMBERS 10000  # zp 
        1 0  # 3 times electric charge
        2 3  # number of spin states (2S+1)
        3 1  # colour rep (1: singlet, 3: triplet, 8: octet)
        4 0  # Particle/Antiparticle distinction (0=own anti)
Block QNUMBERS 10001  # hmt 
        1 0  # 3 times electric charge
        2 1  # number of spin states (2S+1)
        3 1  # colour rep (1: singlet, 3: triplet, 8: octet)
        4 0  # Particle/Antiparticle distinction (0=own anti)
Block QNUMBERS 10002  # dm 
        1 0  # 3 times electric charge
        2 1  # number of spin states (2S+1)
        3 1  # colour rep (1: singlet, 3: triplet, 8: octet)
        4 1  # Particle/Antiparticle distinction (0=own anti)
</slha>
<MGGenerationInfo>
#  Number of Events        :       1000
#  Integrated weight (pb)  :       0.00181756244822
</MGGenerationInfo>
</header>
<init>
2212 2212 4.000000e+03 4.000000e+03 0 0 247000 247000 -4 1
1.817562e-03 1.751267e-05 1.817562e-03 1
<generator name='MadGraph5_aMC@NLO' version='2.5.5'>please cite 1405.0301 </generator>
</init>
<event>
 6      1 +1.8175624e-03 1.75536200e+02 7.81860800e-03 1.17219400e-01
       -2 -1    0    0    0  501 -0.0000000000e+00 +0.0000000000e+00 +5.0112574831e+01 5.0112574896e+01 2.5500000000e-03 0.0000e+00 1.0000e+00
        2 -1    0    0  501    0 +0.0000000000e+00 -0.0000000000e+00 -1.5371875102e+02 1.5371875104e+02 2.5500000000e-03 0.0000e+00 -1.0000e+00
      -13  1    1    2    0    0 +2.2091650828e+01 -1.8365678111e+01 -2.2863427998e+01 3.6716299823e+01 1.0566000000e-01 0.0000e+00 1.0000e+00
       13  1    1    2    0    0 -1.6844597839e+01 -2.3787760005e+00 -6.9095363976e+01 7.1158833174e+01 1.0566000000e-01 0.0000e+00 -1.0000e+00
      -13  1    1    2    0    0 -3.7718209254e+00 -3.6966754058e+01 -8.6266793956e+00 3.8147061487e+01 1.0566000000e-01 0.0000e+00 -1.0000e+00
       13  1    1    2    0    0 -1.4752320640e+00 +5.7711208170e+01 -3.0207048213e+00 5.7809131456e+01 1.0566000000e-01 0.0000e+00 1.0000e+00
<mgrwt>
<rscale>  0 0.17553623E+03</rscale>
<asrwt>0</asrwt>
<pdfrwt beam="1">  1        2 0.38429687E-01 0.17553623E+03</pdfrwt>
<pdfrwt beam="2">  1       -2 0.12528144E-01 0.17553623E+03</pdfrwt>
<totfact> 0.59632117E+03</totfact>
</mgrwt>
</event>
<event>
 6      1 +1.8175624e-03 2.55357100e+02 7.81860800e-03 1.10996500e-01
       -1 -1    0    0    0  501 -0.0000000000e+00 +0.0000000000e+00 +6.2907158578e+01 6.2907158779e+01 5.0400000000e-03 0.0000e+00 -1.0000e+00
        1 -1    0    0  501    0 +0.0000000000e+00 -0.0000000000e+00 -2.5914073389e+02 2.5914073394e+02 5.0400000000e-03 0.0000e+00 1.0000e+00
      -13  1    1    2    0    0 +6.0006413052e+01 -6.7574723163e+00 -7.9584192457e+01 9.9900389852e+01 1.0566000000e-01 0.0000e+00 -1.0000e+00
       13  1    1    2    0    0 +1.4257457268e+01 -2.5533350407e+01 -8.4286899009e+01 8.9216139679e+01 1.0566000000e-01 0.0000e+00 1.0000e+00
      -13  1    1    2    0    0 -6.7240323285e+00 +5.6163303596e+01 -2.1327530153e+01 6.0451666545e+01 1.0566000000e-01 0.0000e+00 -1.0000e+00
       13  1    1    2    0    0 -6.7539837992e+01 -2.3872480873e+01 -1.1034953698e+01 7.2479696647e+01 1.0566000000e-01 0.0000e+00 1.0000e+00
<mgrwt>
<rscale>  0 0.25535706E+03</rscale>
<asrwt>0</asrwt>
<pdfrwt beam="1">  1        1 0.64785181E-01 0.25535706E+03</pdfrwt>
<pdfrwt beam="2">  1       -1 0.15726790E-01 0.25535706E+03</pdfrwt>
<totfact> 0.16845289E+03</totfact>
</mgrwt>
</event>
<event>
 6      1 +1.8175624e-03 4.24242000e+02 7.81860800e-03 1.03569400e-01
        2 -1    0    0  501    0 +0.0000000000e+00 +0.0000000000e+00 +2.0028578654e+02 2.0028578656e+02 2.5500000000e-03 0.0000e+00 -1.0000e+00
       -2 -1    0    0    0  501 -0.0000000000e+00 -0.0000000000e+00 -2.2465558232e+02 2.2465558233e+02 2.5500000000e-03 0.0000e+00 1.0000e+00
      -13  1    1    2    0    0 -8.1563858810e+01 +4.2090001803e+01 -5.5442329556e+01 1.0722916761e+02 1.0566000000e-01 0.0000e+00 1.0000e+00
       13  1    1    2    0    0 -2.7573020907e+01 -2.0184906216e+01 +1.3281249620e+02 1.3713815017e+02 1.0566000000e-01 0.0000e+00 -1.0000e+00
      -13  1    1    2    0    0 +1.2159321631e+02 -1.4017528917e+01 -1.0921750458e+02 1.6404229893e+02 1.0566000000e-01 0.0000e+00 1.0000e+00
       13  1    1    2    0    0 -1.2456336591e+01 -7.8875666703e+00 +7.4775421561e+00 1.6531752175e+01 1.0566000000e-01 0.0000e+00 -1.0000e+00
<mgrwt>
<rscale>  0 0.42424201E+03</rscale>
<asrwt>0</asrwt>
<pdfrwt beam="1">  1        2 0.50071447E-01 0.42424201E+03</pdfrwt>
<pdfrwt beam="2">  1       -2 0.56163896E-01 0.42424201E+03</pdfrwt>
<totfact> 0.30358105E+02</totfact>
</mgrwt>
</event>
<event>
 6      1 +1.8175624e-03 1.05410900e+02 7.81860800e-03 1.26931200e-01
        1 -1    0    0  501    0 +0.0000000000e+00 +0.0000000000e+00 +1.2075180241e+02 1.2075180251e+02 5.0400000000e-03 0.0000e+00 -1.0000e+00
       -1 -1    0    0    0  501 -0.0000000000e+00 -0.0000000000e+00 -2.3004725336e+01 2.3004725888e+01 5.0400000000e-03 0.0000e+00 1.0000e+00
      -13  1    1    2    0    0 -3.4700388019e+01 -2.2239854161e+00 +1.3241827282e+01 3.7207797484e+01 1.0566000000e-01 0.0000e+00 -1.0000e+00
       13  1    1    2    0    0 +3.0043185255e+01 +1.9490334519e+00 +1.8314570703e+01 3.5239556974e+01 1.0566000000e-01 0.0000e+00 1.0000e+00
      -13  1    1    2    0    0 +4.9640064798e+00 +1.2639234915e+01 +2.7159319915e+01 3.0364970638e+01 1.0566000000e-01 0.0000e+00 -1.0000e+00
       13  1    1    2    0    0 -3.0680371518e-01 -1.2364282951e+01 +3.9031359172e+01 4.0944203305e+01 1.0566000000e-01 0.0000e+00 1.0000e+00
<mgrwt>
<rscale>  0 0.10541086E+03</rscale>
<asrwt>0</asrwt>
<pdfrwt beam="1">  1        1 0.30187950E-01 0.10541086E+03</pdfrwt>
<pdfrwt beam="2">  1       -1 0.57511815E-02 0.10541086E+03</pdfrwt>
<totfact> 0.19414432E+04</totfact>
</mgrwt>
</event>
<event>
 6      1 +1.8175624e-03 1.23939500e+03 7.81860800e-03 9.07905600e-02
       -1 -1    0    0    0  501 -0.0000000000e+00 +0.0000000000e+00 +5.5506235151e+02 5.5506235154e+02 5.0400000000e-03 0.0000e+00 -1.0000e+00
        1 -1    0    0  501    0 +0.0000000000e+00 -0.0000000000e+00 -6.9185937585e+02 6.9185937587e+02 5.0400000000e-03 0.0000e+00 1.0000e+00
      -13  1    1    2    0    0 +1.3137572872e+02 +3.8276182009e+02 +3.2985426467e+02 5.2208240738e+02 1.0566000000e-01 0.0000e+00 -1.0000e+00
       13  1    1    2    0    0 -1.8950613033e+02 -3.5455891189e+02 -4.4850490677e+02 6.0231325570e+02 1.0566000000e-01 0.0000e+00 1.0000e+00
      -13  1    1    2    0    0 +3.8837807231e+01 -4.2967130155e+00 -5.9394412581e+01 7.1095319277e+01 1.0566000000e-01 0.0000e+00 -1.0000e+00
       13  1    1    2    0    0 +1.9292594376e+01 -2.3906195179e+01 +4.1248030337e+01 5.1430745050e+01 1.0566000000e-01 0.0000e+00 1.0000e+00
<mgrwt>
<rscale>  0 0.12393952E+04</rscale>
<asrwt>0</asrwt>
<pdfrwt beam="1">  1        1 0.17296484E+00 0.12393952E+04</pdfrwt>
<pdfrwt beam="2">  1       -1 0.13876559E+00 0.12393952E+04</pdfrwt>
<totfact> 0.51033853E+00</totfact>
</mgrwt>
</event>
<event>
 6      1 +1.8175624e-03 5.22184300e+02 7.81860800e-03 1.00814500e-01
       -2 -1    0    0    0  501 -0.0000000000e+00 +0.0000000000e+00 +1.6924273241e+02 1.6924273243e+02 2.5500000000e-03 0.0000e+00 1.0000e+00
        2 -1    0    0  501    0 +0.0000000000e+00 -0.0000000000e+00 -4.0278898057e+02 4.0278898058e+02 2.5500000000e-03 0.0000e+00 -1.0000e+00
      -13  1    1    2    0    0 +6.4092438131e+01 -1.2698047442e+02 -1.2562009238e+02 1.8976907094e+02 1.0566000000e-01 0.0000e+00 1.0000e+00
       13  1    1    2    0    0 +4.1724986521e+01 +5.9198754633e+01 +3.1438166674e+01 7.8954648617e+01 1.0566000000e-01 0.0000e+00 1.0000e+00
      -13  1    1    2    0    0 -3.3236706671e+01 -4.8360475981e+00 +6.5806301770e+01 7.3881977122e+01 1.0566000000e-01 0.0000e+00 -1.0000e+00
       13  1    1    2    0    0 -7.2580717981e+01 +7.2617767384e+01 -2.0517062422e+02 2.2942601633e+02 1.0566000000e-01 0.0000e+00 -1.0000e+00
<mgrwt>
<rscale>  0 0.52218429E+03</rscale>
<asrwt>0</asrwt>
<pdfrwt beam="1">  1        2 0.10069724E+00 0.52218429E+03</pdfrwt>
<pdfrwt beam="2">  1       -2 0.42310684E-01 0.52218429E+03</pdfrwt>
<totfact> 0.24077348E+02</totfact>
</mgrwt>
</event>
<event>
 6      1 +1.8175624e-03 2.15309100e+02 7.81860800e-03 1.13742900e-01
       -4 -1    0    0    0  501 -0.0000000000e+00 +0.0000000000e+00 +3.3689855381e+02 3.3690094754e+02 1.2700000000e+00 0.0000e+00 -1.0000e+00
        4 -1    0    0  501    0 +0.0000000000e+00 -0.0000000000e+00 -3.4386337060e+01 3.4409781696e+01 1.2700000000e+00 0.0000e+00 1.0000e+00
      -13  1    1    2    0    0 +7.2748332816e+00 +1.7562070766e+01 +3.4025575037e+01 3.8975639180e+01 1.0566000000e-01 0.0000e+00 -1.0000e+00
       13  1    1    2    0    0 -3.9664084169e+01 -6.5034397114e+01 +6.9204685755e+01 1.0291750131e+02 1.0566000000e-01 0.0000e+00 1.0000e+00
      -13  1    1    2    0    0 +4.0421837934e+01 +1.2787213715e-01 +2.2568739227e+01 4.6295793411e+01 1.0566000000e-01 0.0000e+00 1.0000e+00
       13  1    1    2    0    0 -8.0325870463e+00 +4.7344454211e+01 +1.7671321673e+02 1.8312179534e+02 1.0566000000e-01 0.0000e+00 -1.0000e+00
<mgrwt>
<rscale>  0 0.21530912E+03</rscale>
<asrwt>0</asrwt>
<pdfrwt beam="1">  1        4 0.85998141E-02 0.21530912E+03</pdfrwt>
<pdfrwt beam="2">  1       -4 0.84227868E-01 0.21530912E+03</pdfrwt>
<totfact> 0.22285048E+02</totfact>
</mgrwt>
</event>
<event>
 6      1 +1.8175624e-03 2.17800200e+02 7.81860800e-03 1.13553400e-01
       -1 -1    0    0    0  501 -0.0000000000e+00 +0.0000000000e+00 +3.6216088365e+02 3.6216088369e+02 5.0400000000e-03 0.0000e+00 1.0000e+00
        1 -1    0    0  501    0 +0.0000000000e+00 -0.0000000000e+00 -3.2745752587e+01 3.2745752975e+01 5.0400000000e-03 0.0000e+00 -1.0000e+00
      -13  1    1    2    0    0 -3.7024209136e+01 -1.3508209548e+01 +1.4565252950e+01 4.2016919745e+01 1.0566000000e-01 0.0000e+00 -1.0000e+00
       13  1    1    2    0    0 +1.2422754174e+01 +4.4624617026e+01 +8.9307321481e+01 1.0060561664e+02 1.0566000000e-01 0.0000e+00 1.0000e+00
      -13  1    1    2    0    0 +6.0476728244e+01 -3.6410018362e+01 +1.0593753909e+02 1.2730238587e+02 1.0566000000e-01 0.0000e+00 -1.0000e+00
       13  1    1    2    0    0 -3.5875273281e+01 +5.2936108834e+00 +1.1960501755e+02 1.2498171440e+02 1.0566000000e-01 0.0000e+00 1.0000e+00
<mgrwt>
<rscale>  0 0.21780019E+03</rscale>
<asrwt>0</asrwt>
<pdfrwt beam="1">  1        1 0.81864383E-02 0.21780019E+03</pdfrwt>
<pdfrwt beam="2">  1       -1 0.90540220E-01 0.21780019E+03</pdfrwt>
<totfact> 0.10514609E+03</totfact>
</mgrwt>
</event>
<event>
 6      1 +1.8175624e-03 4.77233900e+02 7.81860800e-03 1.01989800e-01
       -2 -1    0    0    0  501 -0.0000000000e+00 +0.0000000000e+00 +1.2825409213e+02 1.2825409215e+02 2.5500000000e-03 0.0000e+00 1.0000e+00
        2 -1    0    0  501    0 +0.0000000000e+00 -0.0000000000e+00 -4.4394716347e+02 4.4394716347e+02 2.5500000000e-03 0.0000e+00 -1.0000e+00
      -13  1    1    2    0    0 +7.3709726538e+01 -1.0556557442e+01 +5.7314995289e+01 9.3965869019e+01 1.0566000000e-01 0.0000e+00 1.0000e+00
       13  1    1    2    0    0 -1.2127701055e+02 -8.1666966335e+01 -2.4535242935e+02 2.8561413206e+02 1.0566000000e-01 0.0000e+00 -1.0000e+00
      -13  1    1    2    0    0 +6.1587902323e+01 +1.0620642832e+02 -1.1910470126e+02 1.7105208609e+02 1.0566000000e-01 0.0000e+00 1.0000e+00
       13  1    1    2    0    0 -1.4020618314e+01 -1.3982904546e+01 -8.5509360173e+00 2.1569168465e+01 1.0566000000e-01 0.0000e+00 -1.0000e+00
<mgrwt>
<rscale>  0 0.47723386E+03</rscale>
<asrwt>0</asrwt>
<pdfrwt beam="1">  1        2 0.11098679E+00 0.47723386E+03</pdfrwt>
<pdfrwt beam="2">  1       -2 0.32063524E-01 0.47723386E+03</pdfrwt>
<totfact> 0.36335403E+02</totfact>
</mgrwt>
</event>
<event>
 6      1 +1.8175624e-03 2.34826500e+02 7.81860800e-03 1.12328800e-01
        2 -1    0    0  501    0 +0.0000000000e+00 +0.0000000000e+00 +5.0066359628e+02 5.0066359629e+02 2.5500000000e-03 0.0000e+00 1.0000e+00
       -2 -1    0    0    0  501 -0.0000000000e+00 -0.0000000000e+00 -2.7535205452e+01 2.7535205570e+01 2.5500000000e-03 0.0000e+00 -1.0000e+00
      -13  1    1    2    0    0 +1.6459314752e+01 +3.8619713950e+01 +3.0266920715e+01 5.1754120621e+01 1.0566000000e-01 0.0000e+00 -1.0000e+00
       13  1    1    2    0    0 -2.4432217595e+01 -3.3437523675e+01 +1.2906801172e+02 1.3554912047e+02 1.0566000000e-01 0.0000e+00 -1.0000e+00
      -13  1    1    2    0    0 +5.2864167814e+01 +2.8663821254e+01 +2.4386186217e+02 2.5116698404e+02 1.0566000000e-01 0.0000e+00 1.0000e+00
       13  1    1    2    0    0 -4.4891264971e+01 -3.3846011529e+01 +6.9931596223e+01 8.9728576727e+01 1.0566000000e-01 0.0000e+00 1.0000e+00
<mgrwt>
<rscale>  0 0.23482653E+03</rscale>
<asrwt>0</asrwt>
<pdfrwt beam="1">  1        2 0.12516589E+00 0.23482653E+03</pdfrwt>
<pdfrwt beam="2">  1       -2 0.68838018E-02 0.23482653E+03</pdfrwt>
<totfact> 0.41242288E+03</totfact>
</mgrwt>
</event>
<event>
 6      1 +1.8175624e-03 3.23037700e+02 7.81860800e-03 1.07426000e-01
        2 -1    0    0  501    0 +0.0000000000e+00 +0.0000000000e+00 +2.4484839270e+02 2.4484839271e+02 2.5500000000e-03 0.0000e+00 1.0000e+00
       -2 -1    0    0    0  501 -0.0000000000e+00 -0.0000000000e+00 -1.0654894514e+02 1.0654894517e+02 2.5500000000e-03 0.0000e+00 -1.0000e+00
      -13  1    1    2    0    0 +1.0299754652e+01 +2.0802921539e+01 +1.9303223543e+01 3.0190596113e+01 1.0566000000e-01 0.0000e+00 -1.0000e+00
       13  1    1    2    0    0 +5.2914159381e+01 -1.2041734492e+01 +9.9179888838e+01 1.1305561970e+02 1.0566000000e-01 0.0000e+00 1.0000e+00
      -13  1    1    2    0    0 -2.0153037936e+01 +8.8296021596e+01 -2.3354725978e+01 9.3529603641e+01 1.0566000000e-01 0.0000e+00 -1.0000e+00
       13  1    1    2    0    0 -4.3060876097e+01 -9.7057208644e+01 +4.3171061157e+01 1.1462151842e+02 1.0566000000e-01 0.0000e+00 1.0000e+00
<mgrwt>
<rscale>  0 0.32303769E+03</rscale>
<asrwt>0</asrwt>
<pdfrwt beam="1">  1        2 0.61212098E-01 0.32303769E+03</pdfrwt>
<pdfrwt beam="2">  1       -2 0.26637237E-01 0.32303769E+03</pdfrwt>
<totfact> 0.10217140E+03</totfact>
</mgrwt>
</event>
<event>
 6      1 +1.8175624e-03 3.93339500e+02 7.81860800e-03 1.04611100e-01
        2 -1    0    0  501    0 +0.0000000000e+00 +0.0000000000e+00 +3.3495964927e+02 3.3495964928e+02 2.5500000000e-03 0.0000e+00 1.0000e+00
       -2 -1    0    0    0  501 -0.0000000000e+00 -0.0000000000e+00 -1.1547359007e+02 1.1547359010e+02 2.5500000000e-03 0.0000e+00 -1.0000e+00
      -13  1    1    2    0    0 +2.4430078091e+01 +2.5143553064e+01 +8.0779970983e+00 3.5976272422e+01 1.0566000000e-01 0.0000e+00 1.0000e+00
       13  1    1    2    0    0 -1.1882118320e+02 +3.7779153118e+01 +1.7427519813e+02 2.1428390942e+02 1.0566000000e-01 0.0000e+00 1.0000e+00
      -13  1    1    2    0    0 -3.4726800425e+01 +2.2764910368e+01 +4.0810755975e+00 4.1723592294e+01 1.0566000000e-01 0.0000e+00 -1.0000e+00
       13  1    1    2    0    0 +1.2911790553e+02 -8.5687616550e+01 +3.3051788366e+01 1.5844946525e+02 1.0566000000e-01 0.0000e+00 -1.0000e+00
<mgrwt>
<rscale>  0 0.39333951E+03</rscale>
<asrwt>0</asrwt>
<pdfrwt beam="1">  1        2 0.83739911E-01 0.39333951E+03</pdfrwt>
<pdfrwt beam="2">  1       -2 0.28868398E-01 0.39333951E+03</pdfrwt>
<totfact> 0.62075969E+02</totfact>
</mgrwt>
</event>
<event>
 6      1 +1.8175624e-03 4.62077700e+02 7.81860800e-03 1.02418000e-01
       -2 -1    0    0    0  501 -0.0000000000e+00 +0.0000000000e+00 +5.1914057302e+02 5.1914057303e+02 2.5500000000e-03 0.0000e+00 -1.0000e+00
        2 -1    0    0  501    0 +0.0000000000e+00 -0.0000000000e+00 -1.0282177529e+02 1.0282177532e+02 2.5500000000e-03 0.0000e+00 1.0000e+00
      -13  1    1    2    0    0 -5.4198675444e+01 +6.2094517345e+01 +5.2321312636e+01 9.7625593080e+01 1.0566000000e-01 0.0000e+00 1.0000e+00
       13  1    1    2    0    0 +1.1850583795e+02 -1.4135708775e+02 +9.5992698241e+01 2.0794246600e+02 1.0566000000e-01 0.0000e+00 1.0000e+00
      -13  1    1    2    0    0 -1.8842720296e+01 +1.0994289522e+02 +1.5716189860e+02 1.9272353736e+02 1.0566000000e-01 0.0000e+00 -1.0000e+00
       13  1    1    2    0    0 -4.5464442207e+01 -3.0680324814e+01 +1.1084288826e+02 1.2367075191e+02 1.0566000000e-01 0.0000e+00 -1.0000e+00
<mgrwt>
<rscale>  0 0.46207772E+03</rscale>
<asrwt>0</asrwt>
<pdfrwt beam="1">  1        2 0.25705444E-01 0.46207772E+03</pdfrwt>
<pdfrwt beam="2">  1       -2 0.12978514E+00 0.46207772E+03</pdfrwt>
<totfact> 0.94739999E+01</totfact>
</mgrwt>
</event>
<event>
 6      1 +1.8175624e-03 3.02974000e+02 7.81860800e-03 1.08376300e-01
        2 -1    0    0  501    0 +0.0000000000e+00 +0.0000000000e+00 +3.4823601864e+02 3.4823601864e+02 2.5500000000e-03 0.0000e+00 1.0000e+00
       -2 -1    0    0    0  501 -0.0000000000e+00 -0.0000000000e+00 -6.5898711544e+01 6.5898711594e+01 2.5500000000e-03 0.0000e+00 -1.0000e+00
      -13  1    1    2    0    0 +3.0285495065e+01 -6.7550012853e+01 +6.6834648463e+01 9.9735133464e+01 1.0566000000e-01 0.0000e+00 -1.0000e+00
       13  1    1    2    0    0 -4.4464236451e+00 -1.1822629686e+01 -4.5877000834e+00 1.3438876888e+01 1.0566000000e-01 0.0000e+00 -1.0000e+00
      -13  1    1    2    0    0 -9.4011170292e+00 +1.4106499270e+02 +1.5472429306e+02 2.0958848058e+02 1.0566000000e-01 0.0000e+00 1.0000e+00
       13  1    1    2    0    0 -1.6437954391e+01 -6.1692350158e+01 +6.5366065652e+01 9.1372239304e+01 1.0566000000e-01 0.0000e+00 1.0000e+00
<mgrwt>
<rscale>  0 0.30297396E+03</rscale>
<asrwt>0</asrwt>
<pdfrwt beam="1">  1        2 0.87059003E-01 0.30297396E+03</pdfrwt>
<pdfrwt beam="2">  1       -2 0.16474678E-01 0.30297396E+03</pdfrwt>
<totfact> 0.15816843E+03</totfact>
</mgrwt>
</event>
<event>
 6      1 +1.8175624e-03 1.91346100e+02 7.81860800e-03 1.15725300e-01
        2 -1    0    0  501    0 +0.0000000000e+00 +0.0000000000e+00 +1.5423227785e+02 1.5423227787e+02 2.5500000000e-03 0.0000e+00 1.0000e+00
       -2 -1    0    0    0  501 -0.0000000000e+00 -0.0000000000e+00 -5.9347690437e+01 5.9347690492e+01 2.5500000000e-03 0.0000e+00 -1.0000e+00
      -13  1    1    2    0    0 +3.4982632270e+01 +3.8010257309e+01 +3.2187181131e+00 5.1758434401e+01 1.0566000000e-01 0.0000e+00 -1.0000e+00
       13  1    1    2    0    0 +2.9748375606e+01 -2.3280949752e+01 +4.8061576288e+01 6.1130146015e+01 1.0566000000e-01 0.0000e+00 -1.0000e+00
      -13  1    1    2    0    0 -5.8153915711e+01 -3.3670010534e+01 +4.4540783341e+01 8.0619104848e+01 1.0566000000e-01 0.0000e+00 1.0000e+00
       13  1    1    2    0    0 -6.5770921659e+00 +1.8940702977e+01 -9.3649032994e-01 2.0072283098e+01 1.0566000000e-01 0.0000e+00 1.0000e+00
<mgrwt>
<rscale>  0 0.19134607E+03</rscale>
<asrwt>0</asrwt>
<pdfrwt beam="1">  1        2 0.38558069E-01 0.19134607E+03</pdfrwt>
<pdfrwt beam="2">  1       -2 0.14836923E-01 0.19134607E+03</pdfrwt>
<totfact> 0.45322060E+03</totfact>
</mgrwt>
</event>
<event>
 6      1 +1.8175624e-03 1.56368700e+02 7.81860800e-03 1.19285900e-01
        1 -1    0    0  501    0 +0.0000000000e+00 +0.0000000000e+00 +2.8584732635e+02 2.8584732640e+02 5.0400000000e-03 0.0000e+00 1.0000e+00
       -1 -1    0    0    0  501 -0.0000000000e+00 -0.0000000000e+00 -2.1384815570e+01 2.1384816164e+01 5.0400000000e-03 0.0000e+00 -1.0000e+00
      -13  1    1    2    0    0 +8.6917291996e+00 +3.7808410741e+01 +1.5524650550e+01 4.1785739409e+01 1.0566000000e-01 0.0000e+00 -1.0000e+00
       13  1    1    2    0    0 -3.1872514643e+01 -4.2173590599e+01 +1.1572388981e+02 1.2722617172e+02 1.0566000000e-01 0.0000e+00 1.0000e+00
      -13  1    1    2    0    0 +1.1085526910e+00 +1.1450784925e+01 +6.8942460833e+01 6.9895804124e+01 1.0566000000e-01 0.0000e+00 -1.0000e+00
       13  1    1    2    0    0 +2.2072232753e+01 -7.0856050672e+00 +6.4271509588e+01 6.8324427306e+01 1.0566000000e-01 0.0000e+00 1.0000e+00
<mgrwt>
<rscale>  0 0.15636870E+03</rscale>
<asrwt>0</asrwt>
<pdfrwt beam="1">  1        1 0.71461832E-01 0.15636870E+03</pdfrwt>
<pdfrwt beam="2">  1       -1 0.53462039E-02 0.15636870E+03</pdfrwt>
<totfact> 0.76429977E+03</totfact>
</mgrwt>
</event>
<event>
 6      1 +1.8175624e-03 1.42724800e+02 7.81860800e-03 1.20970900e-01
        1 -1    0    0  501    0 +0.0000000000e+00 +0.0000000000e+00 +6.2233389388e+01 6.2233389592e+01 5.0400000000e-03 0.0000e+00 1.0000e+00
       -1 -1    0    0    0  501 -0.0000000000e+00 -0.0000000000e+00 -8.1830546866e+01 8.1830547022e+01 5.0400000000e-03 0.0000e+00 -1.0000e+00
      -13  1    1    2    0    0 -8.2178252669e-01 +3.8916310476e+01 +7.6229012271e+00 3.9664522369e+01 1.0566000000e-01 0.0000e+00 -1.0000e+00
       13  1    1    2    0    0 -1.2119137885e+01 +2.5774613283e+01 -3.6534767109e+00 2.8715209369e+01 1.0566000000e-01 0.0000e+00 1.0000e+00
      -13  1    1    2    0    0 -2.3668917878e+00 -1.8937179167e+01 -1.9470245083e+01 2.7263905427e+01 1.0566000000e-01 0.0000e+00 -1.0000e+00
       13  1    1    2    0    0 +1.5307812199e+01 -4.5753744592e+01 -4.0963369124e+00 4.8420299448e+01 1.0566000000e-01 0.0000e+00 1.0000e+00
<mgrwt>
<rscale>  0 0.14272480E+03</rscale>
<asrwt>0</asrwt>
<pdfrwt beam="1">  1        1 0.15558347E-01 0.14272480E+03</pdfrwt>
<pdfrwt beam="2">  1       -1 0.20457637E-01 0.14272480E+03</pdfrwt>
<totfact> 0.65664130E+03</totfact>
</mgrwt>
</event>
<event>
 6      1 +1.8175624e-03 4.56603400e+02 7.81860800e-03 1.02577100e-01
        2 -1    0    0  501    0 +0.0000000000e+00 +0.0000000000e+00 +1.1811827756e+03 1.1811827756e+03 2.5500000000e-03 0.0000e+00 1.0000e+00
       -2 -1    0    0    0  501 -0.0000000000e+00 -0.0000000000e+00 -4.4126666840e+01 4.4126666914e+01 2.5500000000e-03 0.0000e+00 -1.0000e+00
      -13  1    1    2    0    0 -2.2379965484e+01 +2.1870732260e+00 +2.4356736010e+01 3.3149779750e+01 1.0566000000e-01 0.0000e+00 1.0000e+00
       13  1    1    2    0    0 +1.0709517696e+02 +7.9481575612e+01 +1.9881421579e+02 2.3940301033e+02 1.0566000000e-01 0.0000e+00 -1.0000e+00
      -13  1    1    2    0    0 -9.0501163257e+01 +7.1069611986e+01 +4.4206394887e+02 4.5679524554e+02 1.0566000000e-01 0.0000e+00 1.0000e+00
       13  1    1    2    0    0 +5.7859517763e+00 -1.5273826082e+02 +4.7182120809e+02 4.9596140689e+02 1.0566000000e-01 0.0000e+00 -1.0000e+00
<mgrwt>
<rscale>  0 0.45660337E+03</rscale>
<asrwt>0</asrwt>
<pdfrwt beam="1">  1        2 0.29529570E+00 0.45660337E+03</pdfrwt>
<pdfrwt beam="2">  1       -2 0.11031666E-01 0.45660337E+03</pdfrwt>
<totfact> 0.45361536E+02</totfact>
</mgrwt>
</event>
<event>
 6      1 +1.8175624e-03 4.84187400e+02 7.81860800e-03 1.01799100e-01
        1 -1    0    0  501    0 +0.0000000000e+00 +0.0000000000e+00 +5.6476425672e+02 5.6476425674e+02 5.0400000000e-03 0.0000e+00 1.0000e+00
       -1 -1    0    0    0  501 -0.0000000000e+00 -0.0000000000e+00 -1.0377666918e+02 1.0377666931e+02 5.0400000000e-03 0.0000e+00 -1.0000e+00
      -13  1    1    2    0    0 +1.3377531429e+02 -4.3932352925e+01 +4.2147728483e+02 4.4437484080e+02 1.0566000000e-01 0.0000e+00 1.0000e+00
       13  1    1    2    0    0 -8.0712693384e+01 +7.5407349969e+01 +5.4556347045e+01 1.2319583382e+02 1.0566000000e-01 0.0000e+00 1.0000e+00
      -13  1    1    2    0    0 +1.2034989954e+01 -1.4820969875e+00 -2.5786179321e+01 2.8495189114e+01 1.0566000000e-01 0.0000e+00 -1.0000e+00
       13  1    1    2    0    0 -6.5097610860e+01 -2.9992900056e+01 +1.0740134976e+01 7.2475062310e+01 1.0566000000e-01 0.0000e+00 -1.0000e+00
<mgrwt>
<rscale>  0 0.48418737E+03</rscale>
<asrwt>0</asrwt>
<pdfrwt beam="1">  1        1 0.14119106E+00 0.48418737E+03</pdfrwt>
<pdfrwt beam="2">  1       -1 0.25944168E-01 0.48418737E+03</pdfrwt>
<totfact> 0.23841032E+02</totfact>
</mgrwt>
</event>
<event>
 6      1 +1.8175624e-03 1.27467600e+03 7.81860800e-03 9.04989200e-02
       -2 -1    0    0    0  501 -0.0000000000e+00 +0.0000000000e+00 +4.4877359042e+02 4.4877359043e+02 2.5500000000e-03 0.0000e+00 1.0000e+00
        2 -1    0    0  501    0 +0.0000000000e+00 -0.0000000000e+00 -9.0513226619e+02 9.0513226619e+02 2.5500000000e-03 0.0000e+00 -1.0000e+00
      -13  1    1    2    0    0 -3.2335649516e+02 -1.3037093853e+02 +3.4648289777e+01 3.5036626510e+02 1.0566000000e-01 0.0000e+00 1.0000e+00
       13  1    1    2    0    0 -3.5553110999e+01 -3.5474829708e+00 +5.6914838532e+01 6.7200582931e+01 1.0566000000e-01 0.0000e+00 -1.0000e+00
      -13  1    1    2    0    0 +5.7593938272e+01 -3.9586070866e+01 +1.4506186831e+02 1.6101886701e+02 1.0566000000e-01 0.0000e+00 1.0000e+00
       13  1    1    2    0    0 +3.0131566788e+02 +1.7350449237e+02 -6.9298367238e+02 7.7532014158e+02 1.0566000000e-01 0.0000e+00 -1.0000e+00
<mgrwt>
<rscale>  0 0.12746756E+04</rscale>
<asrwt>0</asrwt>
<pdfrwt beam="1">  1        2 0.22628306E+00 0.12746756E+04</pdfrwt>
<pdfrwt beam="2">  1       -2 0.11219340E+00 0.12746756E+04</pdfrwt>
<totfact> 0.80101961E+00</totfact>
</mgrwt>
</event>
<event>
 6      1 +1.8175624e-03 3.55475300e+02 7.81860800e-03 1.06039000e-01
        1 -1    0    0  501    0 +0.0000000000e+00 +0.0000000000e+00 +4.8157421954e+02 4.8157421956e+02 5.0400000000e-03 0.0000e+00 -1.0000e+00
       -1 -1    0    0    0  501 -0.0000000000e+00 -0.0000000000e+00 -6.5598776155e+01 6.5598776348e+01 5.0400000000e-03 0.0000e+00 1.0000e+00
      -13  1    1    2    0    0 -3.8689185760e+00 +5.5201586896e+01 +1.1508642306e+02 1.2769917644e+02 1.0566000000e-01 0.0000e+00 1.0000e+00
       13  1    1    2    0    0 -3.7369230574e+00 +6.2046455117e+01 +1.5724904706e+00 6.2178863586e+01 1.0566000000e-01 0.0000e+00 -1.0000e+00
      -13  1    1    2    0    0 -1.8057961182e+01 +1.8556626177e+01 -1.8202033980e+00 2.5956938216e+01 1.0566000000e-01 0.0000e+00 1.0000e+00
       13  1    1    2    0    0 +2.5663802815e+01 -1.3580466819e+02 +3.0113673325e+02 3.3133801767e+02 1.0566000000e-01 0.0000e+00 -1.0000e+00
<mgrwt>
<rscale>  0 0.35547534E+03</rscale>
<asrwt>0</asrwt>
<pdfrwt beam="1">  1        1 0.12039355E+00 0.35547534E+03</pdfrwt>
<pdfrwt beam="2">  1       -1 0.16399694E-01 0.35547534E+03</pdfrwt>
<totfact> 0.66370091E+02</totfact>
</mgrwt>
</event>
<event>
 7      1 +1.8175624e-03 9.11958800e+01 7.81860800e-03 1.29998100e-01
        2 -1    0    0  501    0 +0.0000000000e+00 +0.0000000000e+00 +1.3160352412e+01 1.3160352659e+01 2.5500000000e-03 0.0000e+00 -1.0000e+00
       -2 -1    0    0    0  501 -0.0000000000e+00 -0.0000000000e+00 -1.5798756429e+02 1.5798756431e+02 2.5500000000e-03 0.0000e+00 1.0000e+00
       23  2    1    2    0    0 +0.0000000000e+00 +0.0000000000e+00 -1.4482721187e+02 1.7114791697e+02 9.1195878099e+01 0.0000e+00 0.0000e+00
      -13  1    3    3    0    0 -2.4785602490e+00 -1.3249258549e+01 -7.0834443743e+00 1.5227358971e+01 1.0566000000e-01 0.0000e+00 -1.0000e+00
       13  1    3    3    0    0 -1.4300133050e+01 -1.1418719411e+00 -1.2474175980e+01 1.9010889174e+01 1.0566000000e-01 0.0000e+00 1.0000e+00
      -13  1    3    3    0    0 +8.9022828896e+00 +3.2091149288e+01 -9.7649416963e+01 1.0317224579e+02 1.0566000000e-01 0.0000e+00 1.0000e+00
       13  1    3    3    0    0 +7.8764104094e+00 -1.7700018798e+01 -2.7620174557e+01 3.3737423034e+01 1.0566000000e-01 0.0000e+00 -1.0000e+00
<mgrwt>
<rscale>  0 0.91195878E+02</rscale>
<asrwt>0</asrwt>
<pdfrwt beam="1">  1        2 0.32900886E-02 0.91195878E+02</pdfrwt>
<pdfrwt beam="2">  1       -2 0.39496885E-01 0.91195878E+02</pdfrwt>
<totfact> 0.14987122E+04</totfact>
</mgrwt>
</event>
<event>
 6      1 +1.8175624e-03 2.75017400e+02 7.81860800e-03 1.09844200e-01
       -2 -1    0    0    0  501 -0.0000000000e+00 +0.0000000000e+00 +7.1443273793e+01 7.1443273838e+01 2.5500000000e-03 0.0000e+00 1.0000e+00
        2 -1    0    0  501    0 +0.0000000000e+00 -0.0000000000e+00 -2.6466657572e+02 2.6466657573e+02 2.5500000000e-03 0.0000e+00 -1.0000e+00
      -13  1    1    2    0    0 +2.4117116127e+01 -1.8537478343e+01 -1.0212731516e+02 1.0656112358e+02 1.0566000000e-01 0.0000e+00 -1.0000e+00
       13  1    1    2    0    0 -4.5320704029e+01 -6.9711792204e+00 -6.4865502051e+00 4.6310366561e+01 1.0566000000e-01 0.0000e+00 1.0000e+00
      -13  1    1    2    0    0 +3.2613038785e+01 -7.0778555955e+00 +4.1060397432e+01 5.2911943264e+01 1.0566000000e-01 0.0000e+00 1.0000e+00
       13  1    1    2    0    0 -1.1409450882e+01 +3.2586513159e+01 -1.2566983399e+02 1.3032641616e+02 1.0566000000e-01 0.0000e+00 -1.0000e+00
<mgrwt>
<rscale>  0 0.27501743E+03</rscale>
<asrwt>0</asrwt>
<pdfrwt beam="1">  1        2 0.66166642E-01 0.27501743E+03</pdfrwt>
<pdfrwt beam="2">  1       -2 0.17860819E-01 0.27501743E+03</pdfrwt>
<totfact> 0.18775994E+03</totfact>
</mgrwt>
</event>
<event>
 6      1 +1.8175624e-03 8.22132400e+02 7.81860800e-03 9.52852300e-02
       -2 -1    0    0    0  501 -0.0000000000e+00 +0.0000000000e+00 +3.8874501551e+02 3.8874501551e+02 2.5500000000e-03 0.0000e+00 1.0000e+00
        2 -1    0    0  501    0 +0.0000000000e+00 -0.0000000000e+00 -4.3466899385e+02 4.3466899386e+02 2.5500000000e-03 0.0000e+00 -1.0000e+00
      -13  1    1    2    0    0 -3.5638729861e+01 +1.1883117982e+02 -1.2069776761e+02 1.7308648311e+02 1.0566000000e-01 0.0000e+00 1.0000e+00
       13  1    1    2    0    0 -4.3454962383e+01 -5.6631963010e+00 -6.5113661231e+01 7.8486977207e+01 1.0566000000e-01 0.0000e+00 -1.0000e+00
      -13  1    1    2    0    0 +1.2978684948e+02 -1.2107245554e+02 +3.3012055314e+02 3.7481029409e+02 1.0566000000e-01 0.0000e+00 1.0000e+00
       13  1    1    2    0    0 -5.0693157237e+01 +7.9044720176e+00 -1.9023310264e+02 1.9703025497e+02 1.0566000000e-01 0.0000e+00 -1.0000e+00
<mgrwt>
<rscale>  0 0.82213236E+03</rscale>
<asrwt>0</asrwt>
<pdfrwt beam="1">  1        2 0.10866725E+00 0.82213236E+03</pdfrwt>
<pdfrwt beam="2">  1       -2 0.97186254E-01 0.82213236E+03</pdfrwt>
<totfact> 0.36061961E+01</totfact>
</mgrwt>
</event>
<event>
 6      1 +1.8175624e-03 2.14166600e+02 7.81860800e-03 1.13830800e-01
        2 -1    0    0  501    0 +0.0000000000e+00 +0.0000000000e+00 +2.6545206744e+02 2.6545206745e+02 2.5500000000e-03 0.0000e+00 -1.0000e+00
       -2 -1    0    0    0  501 -0.0000000000e+00 -0.0000000000e+00 -4.3197361287e+01 4.3197361362e+01 2.5500000000e-03 0.0000e+00 1.0000e+00
      -13  1    1    2    0    0 +3.3174047769e+01 -1.4912659642e+01 +2.0414651008e+01 4.1709399454e+01 1.0566000000e-01 0.0000e+00 -1.0000e+00
       13  1    1    2    0    0 -3.4354823924e+01 -3.4236055672e+01 +1.0653318796e+02 1.1705422989e+02 1.0566000000e-01 0.0000e+00 -1.0000e+00
      -13  1    1    2    0    0 +4.6785798620e+01 +2.1914184797e+01 +1.5355731538e+01 5.3897607580e+01 1.0566000000e-01 0.0000e+00 1.0000e+00
       13  1    1    2    0    0 -4.5605022465e+01 +2.7234530518e+01 +7.9951135648e+01 9.5988191888e+01 1.0566000000e-01 0.0000e+00 1.0000e+00
<mgrwt>
<rscale>  0 0.21416656E+03</rscale>
<asrwt>0</asrwt>
<pdfrwt beam="1">  1        2 0.66363016E-01 0.21416656E+03</pdfrwt>
<pdfrwt beam="2">  1       -2 0.10799341E-01 0.21416656E+03</pdfrwt>
<totfact> 0.42458241E+03</totfact>
</mgrwt>
</event>
<event>
 6      1 +1.8175624e-03 1.49683600e+02 7.81860800e-03 1.20086200e-01
        1 -1    0    0  501    0 +0.0000000000e+00 +0.0000000000e+00 +1.0343366600e+01 1.0343367828e+01 5.0400000000e-03 0.0000e+00 -1.0000e+00
       -1 -1    0    0    0  501 -0.0000000000e+00 -0.0000000000e+00 -5.4153479967e+02 5.4153479970e+02 5.0400000000e-03 0.0000e+00 1.0000e+00
      -13  1    1    2    0    0 -7.7391386099e+00 -1.3092766938e+01 -5.1607239754e+01 5.3801795245e+01 1.0566000000e-01 0.0000e+00 -1.0000e+00
       13  1    1    2    0    0 +6.4606260206e+00 -1.3522475039e+01 -8.1791911307e+01 8.3153622525e+01 1.0566000000e-01 0.0000e+00 1.0000e+00
      -13  1    1    2    0    0 +2.0880268859e+01 +6.1247758054e+01 -3.3024115895e+02 3.3652118466e+02 1.0566000000e-01 0.0000e+00 1.0000e+00
       13  1    1    2    0    0 -1.9601756269e+01 -3.4632516078e+01 -6.7551123057e+01 7.8401565093e+01 1.0566000000e-01 0.0000e+00 -1.0000e+00
<mgrwt>
<rscale>  0 0.14968358E+03</rscale>
<asrwt>0</asrwt>
<pdfrwt beam="1">  1        1 0.25858436E-02 0.14968358E+03</pdfrwt>
<pdfrwt beam="2">  1       -1 0.13538360E+00 0.14968358E+03</pdfrwt>
<totfact> 0.20162250E+03</totfact>
</mgrwt>
</event>
<event>
 6      1 +1.8175624e-03 1.98461200e+02 7.81860800e-03 1.15104400e-01
        1 -1    0    0  501    0 +0.0000000000e+00 +0.0000000000e+00 +3.5862164580e+01 3.5862164934e+01 5.0400000000e-03 0.0000e+00 -1.0000e+00
       -1 -1    0    0    0  501 -0.0000000000e+00 -0.0000000000e+00 -2.7457118005e+02 2.7457118010e+02 5.0400000000e-03 0.0000e+00 1.0000e+00
      -13  1    1    2    0    0 -4.1563321441e+01 -1.7320309845e+01 -5.4266574877e+01 7.0515070270e+01 1.0566000000e-01 0.0000e+00 1.0000e+00
       13  1    1    2    0    0 -2.4894217551e+01 +1.3439429065e+01 -2.4842251844e+01 3.7649554603e+01 1.0566000000e-01 0.0000e+00 -1.0000e+00
      -13  1    1    2    0    0 +9.2045766476e+01 -7.2561148277e+00 -9.8012979334e+01 1.3465373968e+02 1.0566000000e-01 0.0000e+00 -1.0000e+00
       13  1    1    2    0    0 -2.5588227484e+01 +1.1136995608e+01 -6.1587209416e+01 6.7614980475e+01 1.0566000000e-01 0.0000e+00 1.0000e+00
<mgrwt>
<rscale>  0 0.19846125E+03</rscale>
<asrwt>0</asrwt>
<pdfrwt beam="1">  1        1 0.89655420E-02 0.19846125E+03</pdfrwt>
<pdfrwt beam="2">  1       -1 0.68642789E-01 0.19846125E+03</pdfrwt>
<totfact> 0.16412291E+03</totfact>
</mgrwt>
</event>
<event>
 6      1 +1.8175624e-03 4.68697500e+02 7.81860800e-03 1.02228800e-01
       -1 -1    0    0    0  501 -0.0000000000e+00 +0.0000000000e+00 +1.9470865671e+02 1.9470865677e+02 5.0400000000e-03 0.0000e+00 -1.0000e+00
        1 -1    0    0  501    0 +0.0000000000e+00 -0.0000000000e+00 -2.8205906884e+02 2.8205906889e+02 5.0400000000e-03 0.0000e+00 1.0000e+00
      -13  1    1    2    0    0 +5.7849253648e+00 -3.5894475090e+01 +2.6087107594e+01 4.4748486568e+01 1.0566000000e-01 0.0000e+00 1.0000e+00
       13  1    1    2    0    0 -8.5625980274e+01 -7.3648966744e+01 -5.7303658186e+01 1.2664793408e+02 1.0566000000e-01 0.0000e+00 -1.0000e+00
      -13  1    1    2    0    0 -7.2123320377e+01 +5.6406430668e+01 +5.7680801301e+01 1.0821527048e+02 1.0566000000e-01 0.0000e+00 -1.0000e+00
       13  1    1    2    0    0 +1.5196437529e+02 +5.3137011166e+01 -1.1381466284e+02 1.9715603454e+02 1.0566000000e-01 0.0000e+00 1.0000e+00
<mgrwt>
<rscale>  0 0.46869752E+03</rscale>
<asrwt>0</asrwt>
<pdfrwt beam="1">  1        1 0.70514767E-01 0.46869752E+03</pdfrwt>
<pdfrwt beam="2">  1       -1 0.48677164E-01 0.46869752E+03</pdfrwt>
<totfact> 0.21714208E+02</totfact>
</mgrwt>
</event>
<event>
 6      1 +1.8175624e-03 3.36693700e+02 7.81860800e-03 1.06821300e-01
       -2 -1    0    0    0  501 -0.0000000000e+00 +0.0000000000e+00 +1.1255181329e+02 1.1255181332e+02 2.5500000000e-03 0.0000e+00 1.0000e+00
        2 -1    0    0  501    0 +0.0000000000e+00 -0.0000000000e+00 -2.5180102176e+02 2.5180102177e+02 2.5500000000e-03 0.0000e+00 -1.0000e+00
      -13  1    1    2    0    0 +1.1197212110e+02 -3.7514666054e+01 -5.4451837038e+01 1.3003891646e+02 1.0566000000e-01 0.0000e+00 1.0000e+00
       13  1    1    2    0    0 -5.1522814898e+01 -4.6180166117e+01 +7.3214413864e+00 6.9576022203e+01 1.0566000000e-01 0.0000e+00 1.0000e+00
      -13  1    1    2    0    0 -4.1139925027e+01 +5.5877690661e+01 -3.0573823739e+00 6.9456234392e+01 1.0566000000e-01 0.0000e+00 -1.0000e+00
       13  1    1    2    0    0 -1.9309381179e+01 +2.7817141510e+01 -8.9061430445e+01 9.5281662036e+01 1.0566000000e-01 0.0000e+00 -1.0000e+00
<mgrwt>
<rscale>  0 0.33669370E+03</rscale>
<asrwt>0</asrwt>
<pdfrwt beam="1">  1        2 0.62950254E-01 0.33669370E+03</pdfrwt>
<pdfrwt beam="2">  1       -2 0.28137954E-01 0.33669370E+03</pdfrwt>
<totfact> 0.89764678E+02</totfact>
</mgrwt>
</event>
<event>
 6      1 +1.8175624e-03 2.14575500e+02 7.81860800e-03 1.13799300e-01
       -1 -1    0    0    0  501 -0.0000000000e+00 +0.0000000000e+00 +1.2772592682e+02 1.2772592692e+02 5.0400000000e-03 0.0000e+00 -1.0000e+00
        1 -1    0    0  501    0 +0.0000000000e+00 -0.0000000000e+00 -9.0119979141e+01 9.0119979282e+01 5.0400000000e-03 0.0000e+00 1.0000e+00
      -13  1    1    2    0    0 -2.0170841364e+01 +1.5246669046e+01 +3.5148198284e-01 2.5287515931e+01 1.0566000000e-01 0.0000e+00 -1.0000e+00
       13  1    1    2    0    0 +8.2720043981e+01 +1.6945692879e+01 -2.7930576241e+01 8.8937564822e+01 1.0566000000e-01 0.0000e+00 1.0000e+00
      -13  1    1    2    0    0 -4.4657103282e+01 -2.5070171145e+00 +4.5303784919e+01 6.3663067004e+01 1.0566000000e-01 0.0000e+00 -1.0000e+00
       13  1    1    2    0    0 -1.7892099335e+01 -2.9685344811e+01 +1.9881257015e+01 3.9957758442e+01 1.0566000000e-01 0.0000e+00 1.0000e+00
<mgrwt>
<rscale>  0 0.21457547E+03</rscale>
<asrwt>0</asrwt>
<pdfrwt beam="1">  1        1 0.22529995E-01 0.21457547E+03</pdfrwt>
<pdfrwt beam="2">  1       -1 0.31931481E-01 0.21457547E+03</pdfrwt>
<totfact> 0.19886631E+03</totfact>
</mgrwt>
</event>
<event>
 6      1 +1.8175624e-03 9.17865800e+02 7.81860800e-03 9.40352000e-02
        2 -1    0    0  501    0 +0.0000000000e+00 +0.0000000000e+00 +1.8353480727e+03 1.8353480727e+03 2.5500000000e-03 0.0000e+00 -1.0000e+00
       -2 -1    0    0    0  501 -0.0000000000e+00 -0.0000000000e+00 -1.1475720632e+02 1.1475720635e+02 2.5500000000e-03 0.0000e+00 1.0000e+00
      -13  1    1    2    0    0 +6.4440771070e+01 -1.1708227449e+01 +7.3692726920e+01 9.8591707212e+01 1.0566000000e-01 0.0000e+00 -1.0000e+00
       13  1    1    2    0    0 +1.0775340697e+02 -2.8937786182e+02 +1.1688477405e+03 1.2089480532e+03 1.0566000000e-01 0.0000e+00 -1.0000e+00
      -13  1    1    2    0    0 -1.5574005060e+02 +3.2568882074e+02 +3.2204754437e+02 4.8377970536e+02 1.0566000000e-01 0.0000e+00 1.0000e+00
       13  1    1    2    0    0 -1.6454127439e+01 -2.4602731471e+01 +1.5600285461e+02 1.5878581333e+02 1.0566000000e-01 0.0000e+00 1.0000e+00
<mgrwt>
<rscale>  0 0.91786582E+03</rscale>
<asrwt>0</asrwt>
<pdfrwt beam="1">  1        2 0.45883702E+00 0.91786582E+03</pdfrwt>
<pdfrwt beam="2">  1       -2 0.28689302E-01 0.91786582E+03</pdfrwt>
<totfact> 0.20543377E+01</totfact>
</mgrwt>
</event>
<event>
 6      1 +1.8175624e-03 1.87632000e+02 7.81860800e-03 1.16061500e-01
       -2 -1    0    0    0  501 -0.0000000000e+00 +0.0000000000e+00 +9.2021303894e+01 9.2021303929e+01 2.5500000000e-03 0.0000e+00 1.0000e+00
        2 -1    0    0  501    0 +0.0000000000e+00 -0.0000000000e+00 -9.5645675480e+01 9.5645675514e+01 2.5500000000e-03 0.0000e+00 -1.0000e+00
      -13  1    1    2    0    0 -2.1244466715e+00 +4.7617202857e+01 +1.4201347628e+01 4.9735306575e+01 1.0566000000e-01 0.0000e+00 1.0000e+00
       13  1    1    2    0    0 +2.1784740014e+01 +1.5737783410e+01 -1.1289832488e+01 2.9150029258e+01 1.0566000000e-01 0.0000e+00 1.0000e+00
      -13  1    1    2    0    0 -4.6593317530e+01 -4.9613950321e+01 -2.5958778539e+01 7.2844702294e+01 1.0566000000e-01 0.0000e+00 -1.0000e+00
       13  1    1    2    0    0 +2.6933024188e+01 -1.3741035945e+01 +1.9422891812e+01 3.5936941316e+01 1.0566000000e-01 0.0000e+00 -1.0000e+00
<mgrwt>
<rscale>  0 0.18763198E+03</rscale>
<asrwt>0</asrwt>
<pdfrwt beam="1">  1        2 0.23911419E-01 0.18763198E+03</pdfrwt>
<pdfrwt beam="2">  1       -2 0.23005326E-01 0.18763198E+03</pdfrwt>
<totfact> 0.36424009E+03</totfact>
</mgrwt>
</event>
<event>
 6      1 +1.8175624e-03 5.28754800e+02 7.81860800e-03 1.00653500e-01
       -4 -1    0    0    0  501 -0.0000000000e+00 +0.0000000000e+00 +4.5132724600e+02 4.5132903284e+02 1.2700000000e+00 0.0000e+00 -1.0000e+00
        4 -1    0    0  501    0 +0.0000000000e+00 -0.0000000000e+00 -1.5486165166e+02 1.5486685913e+02 1.2700000000e+00 0.0000e+00 1.0000e+00
      -13  1    1    2    0    0 +4.4106409831e+01 -2.2116256423e+01 -1.2448286332e+01 5.0886886160e+01 1.0566000000e-01 0.0000e+00 -1.0000e+00
       13  1    1    2    0    0 +1.8416949718e+02 +8.1074299003e+01 +1.7389144738e+02 2.6595054482e+02 1.0566000000e-01 0.0000e+00 1.0000e+00
      -13  1    1    2    0    0 -1.0621327857e+02 -6.1787367742e+01 +2.5839474899e+01 1.2556523796e+02 1.0566000000e-01 0.0000e+00 -1.0000e+00
       13  1    1    2    0    0 -1.2206262844e+02 +2.8293251620e+00 +1.0918295839e+02 1.6379322303e+02 1.0566000000e-01 0.0000e+00 1.0000e+00
<mgrwt>
<rscale>  0 0.52875477E+03</rscale>
<asrwt>0</asrwt>
<pdfrwt beam="1">  1        4 0.38716288E-01 0.52875477E+03</pdfrwt>
<pdfrwt beam="2">  1       -4 0.11283268E+00 0.52875477E+03</pdfrwt>
<totfact> 0.78445810E+00</totfact>
</mgrwt>
</event>
<event>
 6      1 +1.8175624e-03 2.66916500e+02 7.81860800e-03 1.10305700e-01
        2 -1    0    0  501    0 +0.0000000000e+00 +0.0000000000e+00 +6.7712244131e+02 6.7712244132e+02 2.5500000000e-03 0.0000e+00 -1.0000e+00
       -2 -1    0    0    0  501 -0.0000000000e+00 -0.0000000000e+00 -2.6304105235e+01 2.6304105358e+01 2.5500000000e-03 0.0000e+00 1.0000e+00
      -13  1    1    2    0    0 -5.5000227706e+01 +4.5571178834e+01 +3.5331612204e+02 3.6046366065e+02 1.0566000000e-01 0.0000e+00 -1.0000e+00
       13  1    1    2    0    0 +3.7687639413e+01 -2.6034986798e+01 +1.2331284539e+02 1.3154561074e+02 1.0566000000e-01 0.0000e+00 1.0000e+00
      -13  1    1    2    0    0 +8.9934654502e+00 +4.9482187740e+01 +7.2412835369e+01 8.8164614299e+01 1.0566000000e-01 0.0000e+00 1.0000e+00
       13  1    1    2    0    0 +8.3191228428e+00 -6.9018379776e+01 +1.0177653328e+02 1.2325266099e+02 1.0566000000e-01 0.0000e+00 -1.0000e+00
<mgrwt>
<rscale>  0 0.26691647E+03</rscale>
<asrwt>0</asrwt>
<pdfrwt beam="1">  1        2 0.16928061E+00 0.26691647E+03</pdfrwt>
<pdfrwt beam="2">  1       -2 0.65760265E-02 0.26691647E+03</pdfrwt>
<totfact> 0.29284660E+03</totfact>
</mgrwt>
</event>
<event>
 6      1 +1.8175624e-03 2.18295600e+02 7.81860800e-03 1.13516000e-01
       -2 -1    0    0    0  501 -0.0000000000e+00 +0.0000000000e+00 +3.2335716162e+01 3.2335716263e+01 2.5500000000e-03 0.0000e+00 -1.0000e+00
        2 -1    0    0  501    0 +0.0000000000e+00 -0.0000000000e+00 -3.6842349356e+02 3.6842349357e+02 2.5500000000e-03 0.0000e+00 1.0000e+00
      -13  1    1    2    0    0 -3.2780158175e+01 -2.8058976512e+01 -2.3673622184e+02 2.4063643704e+02 1.0566000000e-01 0.0000e+00 1.0000e+00
       13  1    1    2    0    0 +2.1323806064e+01 +1.7954323593e+00 -2.7867726546e+01 3.5136158432e+01 1.0566000000e-01 0.0000e+00 -1.0000e+00
      -13  1    1    2    0    0 -9.0043497794e+00 +6.0260521329e+01 -5.4780726047e+01 8.1935022158e+01 1.0566000000e-01 0.0000e+00 -1.0000e+00
       13  1    1    2    0    0 +2.0460701890e+01 -3.3996977176e+01 -1.6703102962e+01 4.3051592207e+01 1.0566000000e-01 0.0000e+00 1.0000e+00
<mgrwt>
<rscale>  0 0.21829556E+03</rscale>
<asrwt>0</asrwt>
<pdfrwt beam="1">  1        2 0.92105860E-01 0.21829556E+03</pdfrwt>
<pdfrwt beam="2">  1       -2 0.80839302E-02 0.21829556E+03</pdfrwt>
<totfact> 0.46485904E+03</totfact>
</mgrwt>
</event>
<event>
 7      1 +1.8175624e-03 9.14446200e+01 7.81860800e-03 1.29939100e-01
       -1 -1    0    0    0  501 -0.0000000000e+00 +0.0000000000e+00 +9.2667316011e+00 9.2667329717e+00 5.0400000000e-03 0.0000e+00 1.0000e+00
        1 -1    0    0  501    0 +0.0000000000e+00 -0.0000000000e+00 -2.2559512288e+02 2.2559512293e+02 5.0400000000e-03 0.0000e+00 -1.0000e+00
       23  2    1    2    0    0 +3.5527136788e-15 -3.5527136788e-15 -2.1632839128e+02 2.3486185591e+02 9.1444619782e+01 0.0000e+00 0.0000e+00
      -13  1    3    3    0    0 -8.9960001366e+00 +1.3447616435e+01 -3.5685959066e+01 3.9182460933e+01 1.0566000000e-01 0.0000e+00 1.0000e+00
       13  1    3    3    0    0 +1.9282736670e+01 +8.3686301456e+00 -6.8268255851e+01 7.1431252439e+01 1.0566000000e-01 0.0000e+00 -1.0000e+00
      -13  1    3    3    0    0 +4.0707129060e+00 +1.0370555625e+01 -7.0521983826e+00 1.3185742057e+01 1.0566000000e-01 0.0000e+00 1.0000e+00
       13  1    3    3    0    0 -1.4357449440e+01 -3.2186802206e+01 -1.0532197798e+02 1.1106240048e+02 1.0566000000e-01 0.0000e+00 -1.0000e+00
<mgrwt>
<rscale>  0 0.91444620E+02</rscale>
<asrwt>0</asrwt>
<pdfrwt beam="1">  1        1 0.56398763E-01 0.91444620E+02</pdfrwt>
<pdfrwt beam="2">  1       -1 0.23166838E-02 0.91444620E+02</pdfrwt>
<totfact> 0.33254527E+04</totfact>
</mgrwt>
</event>
<event>
 6      1 +1.8175624e-03 3.51536000e+02 7.81860800e-03 1.06198600e-01
       -2 -1    0    0    0  501 -0.0000000000e+00 +0.0000000000e+00 +2.4062365876e+02 2.4062365878e+02 2.5500000000e-03 0.0000e+00 -1.0000e+00
        2 -1    0    0  501    0 +0.0000000000e+00 -0.0000000000e+00 -1.2839297692e+02 1.2839297695e+02 2.5500000000e-03 0.0000e+00 1.0000e+00
      -13  1    1    2    0    0 +2.5981624327e+01 +1.7236171735e+01 -4.1603744765e+00 3.1455528903e+01 1.0566000000e-01 0.0000e+00 -1.0000e+00
       13  1    1    2    0    0 +2.4039126583e+01 -1.3119485862e+02 +5.6713707531e+01 1.4493593868e+02 1.0566000000e-01 0.0000e+00 1.0000e+00
      -13  1    1    2    0    0 -6.8999911867e+00 +1.0311081453e+02 +9.1434469865e+01 1.3798450419e+02 1.0566000000e-01 0.0000e+00 -1.0000e+00
       13  1    1    2    0    0 -4.3120759723e+01 +1.0847872357e+01 -3.1757121082e+01 5.4640663953e+01 1.0566000000e-01 0.0000e+00 1.0000e+00
<mgrwt>
<rscale>  0 0.35153599E+03</rscale>
<asrwt>0</asrwt>
<pdfrwt beam="1">  1        2 0.32098244E-01 0.35153599E+03</pdfrwt>
<pdfrwt beam="2">  1       -2 0.60155914E-01 0.35153599E+03</pdfrwt>
<totfact> 0.42957835E+02</totfact>
</mgrwt>
</event>
<event>
 6      1 +1.8175624e-03 6.64324000e+02 7.81860800e-03 9.78026600e-02
        2 -1    0    0  501    0 +0.0000000000e+00 +0.0000000000e+00 +8.3972014056e+02 8.3972014056e+02 2.5500000000e-03 0.0000e+00 -1.0000e+00
       -2 -1    0    0    0  501 -0.0000000000e+00 -0.0000000000e+00 -1.3139091446e+02 1.3139091449e+02 2.5500000000e-03 0.0000e+00 1.0000e+00
      -13  1    1    2    0    0 +1.0551008579e+02 +1.2691555536e+02 +1.1062910558e+01 1.6541564482e+02 1.0566000000e-01 0.0000e+00 1.0000e+00
       13  1    1    2    0    0 +8.2260094810e+01 +2.5810226039e+01 +1.3781178412e+02 1.6255765123e+02 1.0566000000e-01 0.0000e+00 1.0000e+00
      -13  1    1    2    0    0 -1.7184382296e+01 +4.8945616832e+01 +7.2365278738e+01 8.9037751167e+01 1.0566000000e-01 0.0000e+00 -1.0000e+00
       13  1    1    2    0    0 -1.7058579830e+02 -2.0167139823e+02 +4.8708925268e+02 5.5410000784e+02 1.0566000000e-01 0.0000e+00 -1.0000e+00
<mgrwt>
<rscale>  0 0.66432401E+03</rscale>
<asrwt>0</asrwt>
<pdfrwt beam="1">  1        2 0.20993003E+00 0.66432401E+03</pdfrwt>
<pdfrwt beam="2">  1       -2 0.32847729E-01 0.66432401E+03</pdfrwt>
<totfact> 0.13405749E+02</totfact>
</mgrwt>
</event>
<event>
 6      1 +1.8175624e-03 2.99674700e+02 7.81860800e-03 1.08540300e-01
        1 -1    0    0  501    0 +0.0000000000e+00 +0.0000000000e+00 +1.2167405819e+02 1.2167405830e+02 5.0400000000e-03 0.0000e+00 -1.0000e+00
       -1 -1    0    0    0  501 -0.0000000000e+00 -0.0000000000e+00 -1.8451948256e+02 1.8451948263e+02 5.0400000000e-03 0.0000e+00 1.0000e+00
      -13  1    1    2    0    0 -5.6952514556e+01 +3.3877227036e+01 -1.0574392952e+02 1.2479200783e+02 1.0566000000e-01 0.0000e+00 1.0000e+00
       13  1    1    2    0    0 +3.5596786071e+01 -3.5892863335e+01 -4.0946182816e+01 6.5054053433e+01 1.0566000000e-01 0.0000e+00 1.0000e+00
      -13  1    1    2    0    0 -2.3979026795e+01 +2.0613081600e+01 +3.1054636591e+01 4.4320361877e+01 1.0566000000e-01 0.0000e+00 -1.0000e+00
       13  1    1    2    0    0 +4.5334755280e+01 -1.8597445301e+01 +5.2790051372e+01 7.2027117781e+01 1.0566000000e-01 0.0000e+00 -1.0000e+00
<mgrwt>
<rscale>  0 0.29967472E+03</rscale>
<asrwt>0</asrwt>
<pdfrwt beam="1">  1        1 0.30418515E-01 0.29967472E+03</pdfrwt>
<pdfrwt beam="2">  1       -1 0.46129870E-01 0.29967472E+03</pdfrwt>
<totfact> 0.71139326E+02</totfact>
</mgrwt>
</event>
<event>
 6      1 +1.8175624e-03 4.57106900e+02 7.81860800e-03 1.02562400e-01
       -2 -1    0    0    0  501 -0.0000000000e+00 +0.0000000000e+00 +4.5409002723e+01 4.5409002794e+01 2.5500000000e-03 0.0000e+00 1.0000e+00
        2 -1    0    0  501    0 +0.0000000000e+00 -0.0000000000e+00 -1.1503595554e+03 1.1503595554e+03 2.5500000000e-03 0.0000e+00 -1.0000e+00
      -13  1    1    2    0    0 -4.7337153486e+01 +4.9760764195e+01 -2.9166042397e+02 2.9963770428e+02 1.0566000000e-01 0.0000e+00 -1.0000e+00
       13  1    1    2    0    0 -4.1392768004e+01 -1.6265673270e+02 -5.0253334142e+02 5.2982104936e+02 1.0566000000e-01 0.0000e+00 -1.0000e+00
      -13  1    1    2    0    0 +4.7902060320e+01 +3.0512925705e+01 -1.8192032956e+01 5.9637297433e+01 1.0566000000e-01 0.0000e+00 1.0000e+00
       13  1    1    2    0    0 +4.0827861170e+01 +8.2383042797e+01 -2.9256475435e+02 3.0667250715e+02 1.0566000000e-01 0.0000e+00 1.0000e+00
<mgrwt>
<rscale>  0 0.45710690E+03</rscale>
<asrwt>0</asrwt>
<pdfrwt beam="1">  1        2 0.28758979E+00 0.45710690E+03</pdfrwt>
<pdfrwt beam="2">  1       -2 0.11352254E-01 0.45710690E+03</pdfrwt>
<totfact> 0.46050373E+02</totfact>
</mgrwt>
</event>
<event>
 6      1 +1.8175624e-03 3.31069400e+02 7.81860800e-03 1.07066500e-01
        2 -1    0    0  501    0 +0.0000000000e+00 +0.0000000000e+00 +5.1905401123e+02 5.1905401124e+02 2.5500000000e-03 0.0000e+00 1.0000e+00
       -2 -1    0    0    0  501 -0.0000000000e+00 -0.0000000000e+00 -5.2791700466e+01 5.2791700527e+01 2.5500000000e-03 0.0000e+00 -1.0000e+00
      -13  1    1    2    0    0 +5.4807337329e+01 +1.1874944238e+02 +2.5254752040e+02 2.8440382472e+02 1.0566000000e-01 0.0000e+00 1.0000e+00
       13  1    1    2    0    0 -3.1832306820e+01 -8.7711345721e+01 +8.2756381733e+01 1.2472051077e+02 1.0566000000e-01 0.0000e+00 1.0000e+00
      -13  1    1    2    0    0 -4.6247409366e+01 -2.8895247723e+01 +1.2803975108e+02 1.3916877249e+02 1.0566000000e-01 0.0000e+00 -1.0000e+00
       13  1    1    2    0    0 +2.3272378857e+01 -2.1428489364e+00 +2.9186575500e+00 2.3552603787e+01 1.0566000000e-01 0.0000e+00 -1.0000e+00
<mgrwt>
<rscale>  0 0.33106944E+03</rscale>
<asrwt>0</asrwt>
<pdfrwt beam="1">  1        2 0.12976350E+00 0.33106944E+03</pdfrwt>
<pdfrwt beam="2">  1       -2 0.13197925E-01 0.33106944E+03</pdfrwt>
<totfact> 0.14020452E+03</totfact>
</mgrwt>
</event>
<event>
 6      1 +1.8175624e-03 3.64482500e+02 7.81860800e-03 1.05682300e-01
       -2 -1    0    0    0  501 -0.0000000000e+00 +0.0000000000e+00 +3.1369722809e+02 3.1369722810e+02 2.5500000000e-03 0.0000e+00 -1.0000e+00
        2 -1    0    0  501    0 +0.0000000000e+00 -0.0000000000e+00 -1.0587238666e+02 1.0587238670e+02 2.5500000000e-03 0.0000e+00 1.0000e+00
      -13  1    1    2    0    0 +3.7110709665e+00 +4.5395242246e+01 +6.7336855510e+01 8.1294300786e+01 1.0566000000e-01 0.0000e+00 1.0000e+00
       13  1    1    2    0    0 -9.0963654988e+01 +6.7861400325e+01 +2.8285544733e+01 1.1695999054e+02 1.0566000000e-01 0.0000e+00 -1.0000e+00
      -13  1    1    2    0    0 +2.9823251646e+01 -9.3787681387e+01 +1.2524830342e+02 1.5928811692e+02 1.0566000000e-01 0.0000e+00 -1.0000e+00
       13  1    1    2    0    0 +5.7429332375e+01 -1.9468961184e+01 -1.3045862236e+01 6.2027206548e+01 1.0566000000e-01 0.0000e+00 1.0000e+00
<mgrwt>
<rscale>  0 0.36448251E+03</rscale>
<asrwt>0</asrwt>
<pdfrwt beam="1">  1        2 0.26468097E-01 0.36448251E+03</pdfrwt>
<pdfrwt beam="2">  1       -2 0.78424306E-01 0.36448251E+03</pdfrwt>
<totfact> 0.30112133E+02</totfact>
</mgrwt>
</event>
<event>
 6      1 +1.8175624e-03 3.42040700e+02 7.81860800e-03 1.06593000e-01
        2 -1    0    0  501    0 +0.0000000000e+00 +0.0000000000e+00 +1.2263910954e+03 1.2263910954e+03 2.5500000000e-03 0.0000e+00 1.0000e+00
       -2 -1    0    0    0  501 -0.0000000000e+00 -0.0000000000e+00 -2.3848803924e+01 2.3848804060e+01 2.5500000000e-03 0.0000e+00 -1.0000e+00
      -13  1    1    2    0    0 -4.6080491228e+00 -8.8662277653e+01 +2.3387831455e+02 2.5016256869e+02 1.0566000000e-01 0.0000e+00 -1.0000e+00
       13  1    1    2    0    0 +1.7199641392e+01 +1.4261189037e+02 +5.4808505817e+02 5.6659617109e+02 1.0566000000e-01 0.0000e+00 1.0000e+00
      -13  1    1    2    0    0 -2.2018305971e+01 +2.0149301176e+01 +1.0308951742e+02 1.0732315641e+02 1.0566000000e-01 0.0000e+00 -1.0000e+00
       13  1    1    2    0    0 +9.4267137015e+00 -7.4098913895e+01 +3.1748940134e+02 3.2615800327e+02 1.0566000000e-01 0.0000e+00 1.0000e+00
<mgrwt>
<rscale>  0 0.34204070E+03</rscale>
<asrwt>0</asrwt>
<pdfrwt beam="1">  1        2 0.30659777E+00 0.34204070E+03</pdfrwt>
<pdfrwt beam="2">  1       -2 0.59622010E-02 0.34204070E+03</pdfrwt>
<totfact> 0.11120666E+03</totfact>
</mgrwt>
</event>
<event>
 6      1 +1.8175624e-03 4.25265500e+02 7.81860800e-03 1.03536600e-01
        2 -1    0    0  501    0 +0.0000000000e+00 +0.0000000000e+00 +7.7909886930e+02 7.7909886930e+02 2.5500000000e-03 0.0000e+00 -1.0000e+00
       -2 -1    0    0    0  501 -0.0000000000e+00 -0.0000000000e+00 -5.8032033883e+01 5.8032033939e+01 2.5500000000e-03 0.0000e+00 1.0000e+00
      -13  1    1    2    0    0 +2.7392293828e+01 -6.1108614645e+01 +4.2647055165e+01 7.9393847515e+01 1.0566000000e-01 0.0000e+00 1.0000e+00
       13  1    1    2    0    0 -1.2046758068e+02 +3.1645398577e+01 +5.9825997350e+02 6.1108827211e+02 1.0566000000e-01 0.0000e+00 -1.0000e+00
      -13  1    1    2    0    0 +4.9487350059e+01 +2.2471638282e-01 -1.5748043519e+00 4.9513023399e+01 1.0566000000e-01 0.0000e+00 1.0000e+00
       13  1    1    2    0    0 +4.3587936796e+01 +2.9238499685e+01 +8.1734611094e+01 9.7135760216e+01 1.0566000000e-01 0.0000e+00 -1.0000e+00
<mgrwt>
<rscale>  0 0.42526553E+03</rscale>
<asrwt>0</asrwt>
<pdfrwt beam="1">  1        2 0.19477472E+00 0.42526553E+03</pdfrwt>
<pdfrwt beam="2">  1       -2 0.14508008E-01 0.42526553E+03</pdfrwt>
<totfact> 0.65777411E+02</totfact>
</mgrwt>
</event>
<event>
 6      1 +1.8175624e-03 2.05959800e+02 7.81860800e-03 1.14480600e-01
       -2 -1    0    0    0  501 -0.0000000000e+00 +0.0000000000e+00 +3.0504501185e+01 3.0504501292e+01 2.5500000000e-03 0.0000e+00 1.0000e+00
        2 -1    0    0  501    0 +0.0000000000e+00 -0.0000000000e+00 -3.4764906133e+02 3.4764906134e+02 2.5500000000e-03 0.0000e+00 -1.0000e+00
      -13  1    1    2    0    0 +5.5852004171e+01 -1.7997427370e+01 -8.0179782986e+01 9.9358756663e+01 1.0566000000e-01 0.0000e+00 1.0000e+00
       13  1    1    2    0    0 +2.2212950226e+01 +1.3993144092e+01 -1.2825441477e+02 1.3091382399e+02 1.0566000000e-01 0.0000e+00 -1.0000e+00
      -13  1    1    2    0    0 -2.3397315055e+01 +2.9721468079e+01 -2.7990035899e+01 4.7055852879e+01 1.0566000000e-01 0.0000e+00 1.0000e+00
       13  1    1    2    0    0 -5.4667639342e+01 -2.5717184802e+01 -8.0720326489e+01 1.0082512910e+02 1.0566000000e-01 0.0000e+00 -1.0000e+00
<mgrwt>
<rscale>  0 0.20595981E+03</rscale>
<asrwt>0</asrwt>
<pdfrwt beam="1">  1        2 0.86912253E-01 0.20595981E+03</pdfrwt>
<pdfrwt beam="2">  1       -2 0.76261264E-02 0.20595981E+03</pdfrwt>
<totfact> 0.54291494E+03</totfact>
</mgrwt>
</event>
<event>
 6      1 +1.8175624e-03 3.60714600e+02 7.81860800e-03 1.05830100e-01
        2 -1    0    0  501    0 +0.0000000000e+00 +0.0000000000e+00 +3.9247419325e+02 3.9247419326e+02 2.5500000000e-03 0.0000e+00 -1.0000e+00
       -2 -1    0    0    0  501 -0.0000000000e+00 -0.0000000000e+00 -8.2881266838e+01 8.2881266877e+01 2.5500000000e-03 0.0000e+00 1.0000e+00
      -13  1    1    2    0    0 +5.0492917872e+01 +8.4637582518e+01 +6.5258075081e+00 9.8770706474e+01 1.0566000000e-01 0.0000e+00 1.0000e+00
       13  1    1    2    0    0 +2.5755093759e+01 -3.3294447636e+01 +8.0055446735e+00 4.2847928859e+01 1.0566000000e-01 0.0000e+00 1.0000e+00
      -13  1    1    2    0    0 -5.8120355992e+01 -8.8839926969e+01 +1.5695764365e+02 1.8948937034e+02 1.0566000000e-01 0.0000e+00 -1.0000e+00
       13  1    1    2    0    0 -1.8127655639e+01 +3.7496792087e+01 +1.3810393058e+02 1.4424745447e+02 1.0566000000e-01 0.0000e+00 -1.0000e+00
<mgrwt>
<rscale>  0 0.36071461E+03</rscale>
<asrwt>0</asrwt>
<pdfrwt beam="1">  1        2 0.98118547E-01 0.36071461E+03</pdfrwt>
<pdfrwt beam="2">  1       -2 0.20720317E-01 0.36071461E+03</pdfrwt>
<totfact> 0.92953229E+02</totfact>
</mgrwt>
</event>
<event>
 6      1 +1.8175624e-03 2.17775400e+02 7.81860800e-03 1.13555300e-01
       -1 -1    0    0    0  501 -0.0000000000e+00 +0.0000000000e+00 +1.5478231501e+01 1.5478232322e+01 5.0400000000e-03 0.0000e+00 1.0000e+00
        1 -1    0    0  501    0 +0.0000000000e+00 -0.0000000000e+00 -7.6601319459e+02 7.6601319461e+02 5.0400000000e-03 0.0000e+00 -1.0000e+00
      -13  1    1    2    0    0 -7.4997951995e+01 -3.5772642364e+00 -3.2648125534e+02 3.3500374756e+02 1.0566000000e-01 0.0000e+00 1.0000e+00
       13  1    1    2    0    0 +1.8382749846e+01 +1.7767150022e+01 -5.5215229699e+01 6.0846773674e+01 1.0566000000e-01 0.0000e+00 -1.0000e+00
      -13  1    1    2    0    0 +4.6635069573e+01 +3.6412830851e+01 -2.3135820091e+02 2.3880400385e+02 1.0566000000e-01 0.0000e+00 1.0000e+00
       13  1    1    2    0    0 +9.9801325771e+00 -5.0602716636e+01 -1.3748027714e+02 1.4683690185e+02 1.0566000000e-01 0.0000e+00 -1.0000e+00
<mgrwt>
<rscale>  0 0.21777539E+03</rscale>
<asrwt>0</asrwt>
<pdfrwt beam="1">  1        1 0.19150317E+00 0.21777539E+03</pdfrwt>
<pdfrwt beam="2">  1       -1 0.38695606E-02 0.21777539E+03</pdfrwt>
<totfact> 0.27463440E+03</totfact>
</mgrwt>
</event>
<event>
 6      1 +1.8175624e-03 1.37730300e+02 7.81860800e-03 1.21641600e-01
        1 -1    0    0  501    0 +0.0000000000e+00 +0.0000000000e+00 +8.5879166604e+01 8.5879166752e+01 5.0400000000e-03 0.0000e+00 -1.0000e+00
       -1 -1    0    0    0  501 -0.0000000000e+00 -0.0000000000e+00 -5.5221859583e+01 5.5221859813e+01 5.0400000000e-03 0.0000e+00 1.0000e+00
      -13  1    1    2    0    0 -6.9476774729e+00 -8.7451660598e+00 +5.3539497481e+00 1.2386447982e+01 1.0566000000e-01 0.0000e+00 1.0000e+00
       13  1    1    2    0    0 -2.0363362714e+01 +9.4551969379e+00 +4.0220445405e+00 2.2809105560e+01 1.0566000000e-01 0.0000e+00 -1.0000e+00
      -13  1    1    2    0    0 +3.4752564269e+01 -3.9900885434e+01 -1.1646183568e+01 5.4179942206e+01 1.0566000000e-01 0.0000e+00 -1.0000e+00
       13  1    1    2    0    0 -7.4415240829e+00 +3.9190854556e+01 +3.2927496301e+01 5.1725530816e+01 1.0566000000e-01 0.0000e+00 1.0000e+00
<mgrwt>
<rscale>  0 0.13773028E+03</rscale>
<asrwt>0</asrwt>
<pdfrwt beam="1">  1        1 0.21469792E-01 0.13773028E+03</pdfrwt>
<pdfrwt beam="2">  1       -1 0.13805465E-01 0.13773028E+03</pdfrwt>
<totfact> 0.80845967E+03</totfact>
</mgrwt>
</event>
<event>
 6      1 +1.8175624e-03 5.27395800e+02 7.81860800e-03 1.00686600e-01
        1 -1    0    0  501    0 +0.0000000000e+00 +0.0000000000e+00 +8.3363269294e+02 8.3363269296e+02 5.0400000000e-03 0.0000e+00 -1.0000e+00
       -1 -1    0    0    0  501 -0.0000000000e+00 -0.0000000000e+00 -8.3413945873e+01 8.3413946026e+01 5.0400000000e-03 0.0000e+00 1.0000e+00
      -13  1    1    2    0    0 -1.3130162002e+02 +1.7024493883e+02 +1.4514510633e+02 2.5940425532e+02 1.0566000000e-01 0.0000e+00 1.0000e+00
       13  1    1    2    0    0 +8.7905539156e+01 -8.1927613148e+01 +2.6269441173e+02 2.8887347183e+02 1.0566000000e-01 0.0000e+00 1.0000e+00
      -13  1    1    2    0    0 -2.0076550865e+01 -2.4975411376e+01 +3.0443664225e+01 4.4200304563e+01 1.0566000000e-01 0.0000e+00 -1.0000e+00
       13  1    1    2    0    0 +6.3472631732e+01 -6.3341914311e+01 +3.1193556478e+02 3.2456860727e+02 1.0566000000e-01 0.0000e+00 -1.0000e+00
<mgrwt>
<rscale>  0 0.52739584E+03</rscale>
<asrwt>0</asrwt>
<pdfrwt beam="1">  1        1 0.20840817E+00 0.52739584E+03</pdfrwt>
<pdfrwt beam="2">  1       -1 0.20853487E-01 0.52739584E+03</pdfrwt>
<totfact> 0.16374428E+02</totfact>
</mgrwt>
</event>
<event>
 6      1 +1.8175624e-03 2.28183100e+02 7.81860800e-03 1.12792500e-01
       -2 -1    0    0    0  501 -0.0000000000e+00 +0.0000000000e+00 +2.3457937019e+01 2.3457937158e+01 2.5500000000e-03 0.0000e+00 -1.0000e+00
        2 -1    0    0  501    0 +0.0000000000e+00 -0.0000000000e+00 -5.5490329643e+02 5.5490329644e+02 2.5500000000e-03 0.0000e+00 1.0000e+00
      -13  1    1    2    0    0 +1.4729718207e+01 -5.6387184259e+01 -3.1533982895e+02 3.2068005555e+02 1.0566000000e-01 0.0000e+00 1.0000e+00
       13  1    1    2    0    0 -3.4159183283e+00 +2.1448933647e+01 -7.4608494606e+01 7.7705623246e+01 1.0566000000e-01 0.0000e+00 -1.0000e+00
      -13  1    1    2    0    0 +2.6483885535e+00 +6.0505179203e+01 -3.5833842348e+01 7.0370207430e+01 1.0566000000e-01 0.0000e+00 -1.0000e+00
       13  1    1    2    0    0 -1.3962188432e+01 -2.5566928592e+01 -1.0566319351e+02 1.0960534736e+02 1.0566000000e-01 0.0000e+00 1.0000e+00
<mgrwt>
<rscale>  0 0.22818314E+03</rscale>
<asrwt>0</asrwt>
<pdfrwt beam="1">  1        2 0.13872578E+00 0.22818314E+03</pdfrwt>
<pdfrwt beam="2">  1       -2 0.58644861E-02 0.22818314E+03</pdfrwt>
<totfact> 0.46112707E+03</totfact>
</mgrwt>
</event>
<event>
 6      1 +1.8175624e-03 2.88460700e+02 7.81860800e-03 1.09115600e-01
       -2 -1    0    0    0  501 -0.0000000000e+00 +0.0000000000e+00 +7.0646818559e+01 7.0646818605e+01 2.5500000000e-03 0.0000e+00 1.0000e+00
        2 -1    0    0  501    0 +0.0000000000e+00 -0.0000000000e+00 -2.9445617803e+02 2.9445617804e+02 2.5500000000e-03 0.0000e+00 -1.0000e+00
      -13  1    1    2    0    0 +2.8471302924e+01 -8.8735157568e+00 +3.8704836299e+01 4.8861333271e+01 1.0566000000e-01 0.0000e+00 1.0000e+00
       13  1    1    2    0    0 -1.7894089673e+01 -3.0749724509e+01 -4.8968043133e+01 6.0527881302e+01 1.0566000000e-01 0.0000e+00 1.0000e+00
      -13  1    1    2    0    0 +4.8854253011e+01 +3.3062946210e+01 -1.7474845862e+02 1.8443679515e+02 1.0566000000e-01 0.0000e+00 -1.0000e+00
       13  1    1    2    0    0 -5.9431466262e+01 +6.5602940560e+00 -3.8797694013e+01 7.1276986924e+01 1.0566000000e-01 0.0000e+00 -1.0000e+00
<mgrwt>
<rscale>  0 0.28846069E+03</rscale>
<asrwt>0</asrwt>
<pdfrwt beam="1">  1        2 0.73614041E-01 0.28846069E+03</pdfrwt>
<pdfrwt beam="2">  1       -2 0.17661705E-01 0.28846069E+03</pdfrwt>
<totfact> 0.17011721E+03</totfact>
</mgrwt>
</event>
<event>
 6      1 +1.8175624e-03 3.03399100e+02 7.81860800e-03 1.08355400e-01
        2 -1    0    0  501    0 +0.0000000000e+00 +0.0000000000e+00 +1.9472009933e+02 1.9472009934e+02 2.5500000000e-03 0.0000e+00 -1.0000e+00
       -2 -1    0    0    0  501 -0.0000000000e+00 -0.0000000000e+00 -1.1818372239e+02 1.1818372242e+02 2.5500000000e-03 0.0000e+00 1.0000e+00
      -13  1    1    2    0    0 +3.4990560338e+01 -3.9158117668e+01 -4.1770057706e+01 6.7100271064e+01 1.0566000000e-01 0.0000e+00 1.0000e+00
       13  1    1    2    0    0 +1.5741418715e+01 +9.2866985737e+01 +7.0270225631e+01 1.1751589287e+02 1.0566000000e-01 0.0000e+00 -1.0000e+00
      -13  1    1    2    0    0 -6.0780338965e+01 -6.2750312834e+01 +1.0012300476e+01 8.7932409783e+01 1.0566000000e-01 0.0000e+00 1.0000e+00
       13  1    1    2    0    0 +1.0048359912e+01 +9.0414447646e+00 +3.8023908535e+01 4.0355248043e+01 1.0566000000e-01 0.0000e+00 -1.0000e+00
<mgrwt>
<rscale>  0 0.30339905E+03</rscale>
<asrwt>0</asrwt>
<pdfrwt beam="1">  1        2 0.48680025E-01 0.30339905E+03</pdfrwt>
<pdfrwt beam="2">  1       -2 0.29545931E-01 0.30339905E+03</pdfrwt>
<totfact> 0.10872130E+03</totfact>
</mgrwt>
</event>
<event>
 6      1 +1.8175624e-03 2.57815200e+02 7.81860800e-03 1.10846300e-01
       -2 -1    0    0    0  501 -0.0000000000e+00 +0.0000000000e+00 +2.2179149076e+01 2.2179149222e+01 2.5500000000e-03 0.0000e+00 1.0000e+00
        2 -1    0    0  501    0 +0.0000000000e+00 -0.0000000000e+00 -7.4922467387e+02 7.4922467387e+02 2.5500000000e-03 0.0000e+00 -1.0000e+00
      -13  1    1    2    0    0 -7.5493462999e+01 -2.7131817312e+01 -2.4734235587e+02 2.6002624990e+02 1.0566000000e-01 0.0000e+00 1.0000e+00
       13  1    1    2    0    0 +3.6374261591e+01 +5.4589416905e+01 -1.8596816786e+02 1.9719853439e+02 1.0566000000e-01 0.0000e+00 -1.0000e+00
      -13  1    1    2    0    0 -3.0585190077e+01 +9.4544352971e+00 -1.0015472927e+02 1.0514666499e+02 1.0566000000e-01 0.0000e+00 1.0000e+00
       13  1    1    2    0    0 +6.9704391485e+01 -3.6912034890e+01 -1.9358027179e+02 2.0903237382e+02 1.0566000000e-01 0.0000e+00 -1.0000e+00
<mgrwt>
<rscale>  0 0.25781517E+03</rscale>
<asrwt>0</asrwt>
<pdfrwt beam="1">  1        2 0.18730608E+00 0.25781517E+03</pdfrwt>
<pdfrwt beam="2">  1       -2 0.55447898E-02 0.25781517E+03</pdfrwt>
<totfact> 0.32584216E+03</totfact>
</mgrwt>
</event>
<event>
 6      1 +1.8175624e-03 4.28601600e+02 7.81860800e-03 1.03430300e-01
       -2 -1    0    0    0  501 -0.0000000000e+00 +0.0000000000e+00 +5.2696688566e+02 5.2696688566e+02 2.5500000000e-03 0.0000e+00 -1.0000e+00
        2 -1    0    0  501    0 +0.0000000000e+00 -0.0000000000e+00 -8.7149373676e+01 8.7149373714e+01 2.5500000000e-03 0.0000e+00 1.0000e+00
      -13  1    1    2    0    0 -7.1638682445e+01 -4.5235024828e+01 +5.4871642644e+01 1.0094164960e+02 1.0566000000e-01 0.0000e+00 -1.0000e+00
       13  1    1    2    0    0 +1.6266863070e+02 -4.2677393621e+01 +8.9987269949e+01 1.9073584681e+02 1.0566000000e-01 0.0000e+00 1.0000e+00
      -13  1    1    2    0    0 -5.7199255033e+01 +4.9819854677e+01 +2.1113159682e+02 2.2434423335e+02 1.0566000000e-01 0.0000e+00 -1.0000e+00
       13  1    1    2    0    0 -3.3830693221e+01 +3.8092563772e+01 +8.3827002567e+01 9.8094529623e+01 1.0566000000e-01 0.0000e+00 1.0000e+00
<mgrwt>
<rscale>  0 0.42860161E+03</rscale>
<asrwt>0</asrwt>
<pdfrwt beam="1">  1        2 0.21787344E-01 0.42860161E+03</pdfrwt>
<pdfrwt beam="2">  1       -2 0.13174172E+00 0.42860161E+03</pdfrwt>
<totfact> 0.11047274E+02</totfact>
</mgrwt>
</event>
<event>
 6      1 +1.8175624e-03 6.81567800e+02 7.81860800e-03 9.74928400e-02
        2 -1    0    0  501    0 +0.0000000000e+00 +0.0000000000e+00 +5.0137288752e+02 5.0137288753e+02 2.5500000000e-03 0.0000e+00 1.0000e+00
       -2 -1    0    0    0  501 -0.0000000000e+00 -0.0000000000e+00 -2.3163129310e+02 2.3163129312e+02 2.5500000000e-03 0.0000e+00 -1.0000e+00
      -13  1    1    2    0    0 +3.3272263020e+01 -1.6929077399e+01 -1.7270504220e+01 4.1132938481e+01 1.0566000000e-01 0.0000e+00 1.0000e+00
       13  1    1    2    0    0 +2.2338592155e+01 +6.0271056330e+01 +6.6511535182e+01 9.2495450736e+01 1.0566000000e-01 0.0000e+00 -1.0000e+00
      -13  1    1    2    0    0 +8.6793158107e+01 +1.6562515241e+02 -8.2787928069e+01 2.0449595498e+02 1.0566000000e-01 0.0000e+00 -1.0000e+00
       13  1    1    2    0    0 -1.4240401328e+02 -2.0896713134e+02 +3.0328849153e+02 3.9487983645e+02 1.0566000000e-01 0.0000e+00 1.0000e+00
<mgrwt>
<rscale>  0 0.68156775E+03</rscale>
<asrwt>0</asrwt>
<pdfrwt beam="1">  1        2 0.12534322E+00 0.68156775E+03</pdfrwt>
<pdfrwt beam="2">  1       -2 0.57907824E-01 0.68156775E+03</pdfrwt>
<totfact> 0.95467619E+01</totfact>
</mgrwt>
</event>
<event>
 6      1 +1.8175624e-03 2.77996400e+02 7.81860800e-03 1.09678800e-01
        2 -1    0    0  501    0 +0.0000000000e+00 +0.0000000000e+00 +4.0357227928e+02 4.0357227928e+02 2.5500000000e-03 0.0000e+00 -1.0000e+00
       -2 -1    0    0    0  501 -0.0000000000e+00 -0.0000000000e+00 -4.7873698258e+01 4.7873698326e+01 2.5500000000e-03 0.0000e+00 1.0000e+00
      -13  1    1    2    0    0 -5.7028661683e+01 +7.8725110271e+01 +1.8397550623e+02 2.0807909385e+02 1.0566000000e-01 0.0000e+00 -1.0000e+00
       13  1    1    2    0    0 -1.4608978269e+01 -8.4622269921e+00 -6.4332073742e+00 1.8067342164e+01 1.0566000000e-01 0.0000e+00 1.0000e+00
      -13  1    1    2    0    0 +7.6981469486e+01 -2.1836576953e+01 +6.8601891941e+01 1.0540025370e+02 1.0566000000e-01 0.0000e+00 1.0000e+00
       13  1    1    2    0    0 -5.3438295346e+00 -4.8426306325e+01 +1.0955439022e+02 1.1989928790e+02 1.0566000000e-01 0.0000e+00 -1.0000e+00
<mgrwt>
<rscale>  0 0.27799639E+03</rscale>
<asrwt>0</asrwt>
<pdfrwt beam="1">  1        2 0.10089307E+00 0.27799639E+03</pdfrwt>
<pdfrwt beam="2">  1       -2 0.11968425E-01 0.27799639E+03</pdfrwt>
<totfact> 0.22509489E+03</totfact>
</mgrwt>
</event>
<event>
 6      1 +1.8175624e-03 4.31286300e+02 7.81860800e-03 1.03345400e-01
       -2 -1    0    0    0  501 -0.0000000000e+00 +0.0000000000e+00 +1.2193298501e+02 1.2193298503e+02 2.5500000000e-03 0.0000e+00 1.0000e+00
        2 -1    0    0  501    0 +0.0000000000e+00 -0.0000000000e+00 -3.8137321637e+02 3.8137321638e+02 2.5500000000e-03 0.0000e+00 -1.0000e+00
      -13  1    1    2    0    0 +1.1487508321e+02 -2.6728223133e+01 +1.6670575267e+01 1.1911591791e+02 1.0566000000e-01 0.0000e+00 1.0000e+00
       13  1    1    2    0    0 +3.9075723056e+01 +4.1598694899e+01 -4.3728842691e+01 7.1899835861e+01 1.0566000000e-01 0.0000e+00 1.0000e+00
      -13  1    1    2    0    0 -7.0328430486e+01 +1.1701057203e+01 -8.4650051327e+00 7.1796032970e+01 1.0566000000e-01 0.0000e+00 -1.0000e+00
       13  1    1    2    0    0 -8.3622375784e+01 -2.6571528968e+01 -2.2391695881e+02 2.4049441468e+02 1.0566000000e-01 0.0000e+00 -1.0000e+00
<mgrwt>
<rscale>  0 0.43128633E+03</rscale>
<asrwt>0</asrwt>
<pdfrwt beam="1">  1        2 0.95343301E-01 0.43128633E+03</pdfrwt>
<pdfrwt beam="2">  1       -2 0.30483247E-01 0.43128633E+03</pdfrwt>
<totfact> 0.48169358E+02</totfact>
</mgrwt>
</event>
<event>
 6      1 +1.8175624e-03 4.42679100e+02 7.81860800e-03 1.02992800e-01
        2 -1    0    0  501    0 +0.0000000000e+00 +0.0000000000e+00 +5.1563017212e+02 5.1563017212e+02 2.5500000000e-03 0.0000e+00 -1.0000e+00
       -2 -1    0    0    0  501 -0.0000000000e+00 -0.0000000000e+00 -9.5012259692e+01 9.5012259726e+01 2.5500000000e-03 0.0000e+00 1.0000e+00
      -13  1    1    2    0    0 -4.9548101439e+01 +6.9697148393e+01 -2.8520908853e+00 8.5561980089e+01 1.0566000000e-01 0.0000e+00 -1.0000e+00
       13  1    1    2    0    0 -1.2727750136e+01 +8.6036901029e+01 +2.3096424884e+02 2.4679716240e+02 1.0566000000e-01 0.0000e+00 -1.0000e+00
      -13  1    1    2    0    0 +8.1606752232e+01 -1.4687534453e+02 +1.3055024059e+02 2.1278018075e+02 1.0566000000e-01 0.0000e+00 1.0000e+00
       13  1    1    2    0    0 -1.9330900657e+01 -8.8587048931e+00 +6.1955513880e+01 6.5503108604e+01 1.0566000000e-01 0.0000e+00 1.0000e+00
<mgrwt>
<rscale>  0 0.44267906E+03</rscale>
<asrwt>0</asrwt>
<pdfrwt beam="1">  1        2 0.12890754E+00 0.44267906E+03</pdfrwt>
<pdfrwt beam="2">  1       -2 0.23753065E-01 0.44267906E+03</pdfrwt>
<totfact> 0.51759559E+02</totfact>
</mgrwt>
</event>
<event>
 6      1 +1.8175624e-03 1.74573100e+02 7.81860800e-03 1.17316100e-01
        1 -1    0    0  501    0 +0.0000000000e+00 +0.0000000000e+00 +1.1115071384e+01 1.1115072527e+01 5.0400000000e-03 0.0000e+00 -1.0000e+00
       -1 -1    0    0    0  501 -0.0000000000e+00 -0.0000000000e+00 -6.8546009358e+02 6.8546009360e+02 5.0400000000e-03 0.0000e+00 1.0000e+00
      -13  1    1    2    0    0 -1.1093520256e+01 -2.9380024634e+01 -1.1403214476e+02 1.1827761091e+02 1.0566000000e-01 0.0000e+00 1.0000e+00
       13  1    1    2    0    0 -3.2760756129e+01 +1.1277865824e+01 -1.7506977383e+02 1.7846538676e+02 1.0566000000e-01 0.0000e+00 -1.0000e+00
      -13  1    1    2    0    0 -2.0965977650e+01 +1.3814365807e+01 -3.2046507779e+01 4.0711162429e+01 1.0566000000e-01 0.0000e+00 -1.0000e+00
       13  1    1    2    0    0 +6.4820254035e+01 +4.2877930036e+00 -3.5319659583e+02 3.5912100603e+02 1.0566000000e-01 0.0000e+00 1.0000e+00
<mgrwt>
<rscale>  0 0.17457306E+03</rscale>
<asrwt>0</asrwt>
<pdfrwt beam="1">  1        1 0.27787703E-02 0.17457306E+03</pdfrwt>
<pdfrwt beam="2">  1       -1 0.17136488E+00 0.17457306E+03</pdfrwt>
<totfact> 0.98853088E+02</totfact>
</mgrwt>
</event>
<event>
 6      1 +1.8175624e-03 4.12428600e+02 7.81860800e-03 1.03955900e-01
        1 -1    0    0  501    0 +0.0000000000e+00 +0.0000000000e+00 +1.0038015439e+03 1.0038015439e+03 5.0400000000e-03 0.0000e+00 -1.0000e+00
       -1 -1    0    0    0  501 -0.0000000000e+00 -0.0000000000e+00 -4.2363297295e+01 4.2363297595e+01 5.0400000000e-03 0.0000e+00 1.0000e+00
      -13  1    1    2    0    0 +7.4537578014e+00 +1.2319803798e+02 +2.1342405028e+02 2.4654239285e+02 1.0566000000e-01 0.0000e+00 1.0000e+00
       13  1    1    2    0    0 +5.2660019929e+01 -2.6717072015e+01 +1.5639911256e+02 1.6717527691e+02 1.0566000000e-01 0.0000e+00 1.0000e+00
      -13  1    1    2    0    0 -1.2428381951e+01 +5.8975129689e+01 +1.8286744679e+02 1.9254361807e+02 1.0566000000e-01 0.0000e+00 -1.0000e+00
       13  1    1    2    0    0 -4.7685395780e+01 -1.5545609566e+02 +4.0874763700e+02 4.3990355371e+02 1.0566000000e-01 0.0000e+00 -1.0000e+00
<mgrwt>
<rscale>  0 0.41242863E+03</rscale>
<asrwt>0</asrwt>
<pdfrwt beam="1">  1        1 0.25095038E+00 0.41242863E+03</pdfrwt>
<pdfrwt beam="2">  1       -1 0.10590825E-01 0.41242863E+03</pdfrwt>
<totfact> 0.32142100E+02</totfact>
</mgrwt>
</event>
<event>
 6      1 +1.8175624e-03 2.88445000e+02 7.81860800e-03 1.09116400e-01
        1 -1    0    0  501    0 +0.0000000000e+00 +0.0000000000e+00 +2.2365076259e+02 2.2365076265e+02 5.0400000000e-03 0.0000e+00 1.0000e+00
       -1 -1    0    0    0  501 -0.0000000000e+00 -0.0000000000e+00 -9.3002747665e+01 9.3002747801e+01 5.0400000000e-03 0.0000e+00 -1.0000e+00
      -13  1    1    2    0    0 -8.1240657648e+01 -5.1537296452e+01 +5.0965725669e+01 1.0887448616e+02 1.0566000000e-01 0.0000e+00 -1.0000e+00
       13  1    1    2    0    0 -1.8751763264e+00 -3.6259680037e+01 +1.0577348794e+01 3.7817616982e+01 1.0566000000e-01 0.0000e+00 1.0000e+00
      -13  1    1    2    0    0 +4.2606161261e+01 +3.8286649074e+01 -1.9647272104e+01 6.0557236891e+01 1.0566000000e-01 0.0000e+00 -1.0000e+00
       13  1    1    2    0    0 +4.0509672713e+01 +4.9510327415e+01 +8.8752212569e+01 1.0940417041e+02 1.0566000000e-01 0.0000e+00 1.0000e+00
<mgrwt>
<rscale>  0 0.28844504E+03</rscale>
<asrwt>0</asrwt>
<pdfrwt beam="1">  1        1 0.55912690E-01 0.28844504E+03</pdfrwt>
<pdfrwt beam="2">  1       -1 0.23250687E-01 0.28844504E+03</pdfrwt>
<totfact> 0.10795685E+03</totfact>
</mgrwt>
</event>
<event>
 6      1 +1.8175624e-03 2.97354400e+02 7.81860800e-03 1.08657100e-01
        1 -1    0    0  501    0 +0.0000000000e+00 +0.0000000000e+00 +1.1618526922e+03 1.1618526922e+03 5.0400000000e-03 0.0000e+00 -1.0000e+00
       -1 -1    0    0    0  501 -0.0000000000e+00 -0.0000000000e+00 -1.9025565716e+01 1.9025566383e+01 5.0400000000e-03 0.0000e+00 1.0000e+00
      -13  1    1    2    0    0 -2.2740300720e+01 +2.0257640622e+01 +1.3543116688e+02 1.3881320328e+02 1.0566000000e-01 0.0000e+00 -1.0000e+00
       13  1    1    2    0    0 +3.1736570485e+01 -5.7198416452e+01 +2.5372079889e+02 2.6201741107e+02 1.0566000000e-01 0.0000e+00 1.0000e+00
      -13  1    1    2    0    0 -7.9768710135e+01 -4.5465524567e+01 +3.7727168940e+02 3.8828353021e+02 1.0566000000e-01 0.0000e+00 1.0000e+00
       13  1    1    2    0    0 +7.0772440369e+01 +8.2406300397e+01 +3.7640347127e+02 3.9176411399e+02 1.0566000000e-01 0.0000e+00 -1.0000e+00
<mgrwt>
<rscale>  0 0.29735437E+03</rscale>
<asrwt>0</asrwt>
<pdfrwt beam="1">  1        1 0.29046318E+00 0.29735437E+03</pdfrwt>
<pdfrwt beam="2">  1       -1 0.47563913E-02 0.29735437E+03</pdfrwt>
<totfact> 0.75442864E+02</totfact>
</mgrwt>
</event>
<event>
 6      1 +1.8175624e-03 2.13037000e+02 7.81860800e-03 1.13918300e-01
        2 -1    0    0  501    0 +0.0000000000e+00 +0.0000000000e+00 +2.2540053544e+02 2.2540053546e+02 2.5500000000e-03 0.0000e+00 -1.0000e+00
       -2 -1    0    0    0  501 -0.0000000000e+00 -0.0000000000e+00 -5.0337892850e+01 5.0337892915e+01 2.5500000000e-03 0.0000e+00 1.0000e+00
      -13  1    1    2    0    0 -1.8858223751e+01 -6.4507549785e-01 +3.1196820600e+01 3.6459587286e+01 1.0566000000e-01 0.0000e+00 1.0000e+00
       13  1    1    2    0    0 -2.6977639107e+01 -6.0618340607e+01 +5.3065086000e+01 8.4960524633e+01 1.0566000000e-01 0.0000e+00 -1.0000e+00
      -13  1    1    2    0    0 -1.4456835119e+01 +2.1720163519e+01 -1.2026799033e+01 2.8730134771e+01 1.0566000000e-01 0.0000e+00 -1.0000e+00
       13  1    1    2    0    0 +6.0292697978e+01 +3.9543252586e+01 +1.0282753502e+02 1.2558818168e+02 1.0566000000e-01 0.0000e+00 1.0000e+00
<mgrwt>
<rscale>  0 0.21303697E+03</rscale>
<asrwt>0</asrwt>
<pdfrwt beam="1">  1        2 0.56350133E-01 0.21303697E+03</pdfrwt>
<pdfrwt beam="2">  1       -2 0.12584473E-01 0.21303697E+03</pdfrwt>
<totfact> 0.39633322E+03</totfact>
</mgrwt>
</event>
<event>
 6      1 +1.8175624e-03 3.48549400e+02 7.81860800e-03 1.06321200e-01
        2 -1    0    0  501    0 +0.0000000000e+00 +0.0000000000e+00 +5.5312005062e+02 5.5312005062e+02 2.5500000000e-03 0.0000e+00 -1.0000e+00
       -2 -1    0    0    0  501 -0.0000000000e+00 -0.0000000000e+00 -5.4909737303e+01 5.4909737362e+01 2.5500000000e-03 0.0000e+00 1.0000e+00
      -13  1    1    2    0    0 +5.3857697032e+01 -3.2324037619e+01 -1.2075378087e+00 6.2824869671e+01 1.0566000000e-01 0.0000e+00 1.0000e+00
       13  1    1    2    0    0 -3.3097033633e+01 +9.7550145803e+00 +1.2173339557e+01 3.6589278549e+01 1.0566000000e-01 0.0000e+00 -1.0000e+00
      -13  1    1    2    0    0 -4.9851325378e+01 -4.5095236655e+01 +1.6723349030e+02 1.8023813818e+02 1.0566000000e-01 0.0000e+00 1.0000e+00
       13  1    1    2    0    0 +2.9090661978e+01 +6.7664259694e+01 +3.2001102127e+02 3.2837750159e+02 1.0566000000e-01 0.0000e+00 -1.0000e+00
<mgrwt>
<rscale>  0 0.34854943E+03</rscale>
<asrwt>0</asrwt>
<pdfrwt beam="1">  1        2 0.13828001E+00 0.34854943E+03</pdfrwt>
<pdfrwt beam="2">  1       -2 0.13727434E-01 0.34854943E+03</pdfrwt>
<totfact> 0.12068372E+03</totfact>
</mgrwt>
</event>
<event>
 6      1 +1.8175624e-03 7.27799800e+02 7.81860800e-03 9.67083700e-02
       -2 -1    0    0    0  501 -0.0000000000e+00 +0.0000000000e+00 +2.2512412479e+02 2.2512412481e+02 2.5500000000e-03 0.0000e+00 -1.0000e+00
        2 -1    0    0  501    0 +0.0000000000e+00 -0.0000000000e+00 -5.8822279014e+02 5.8822279015e+02 2.5500000000e-03 0.0000e+00 1.0000e+00
      -13  1    1    2    0    0 -6.3928030309e+00 +7.6931543779e+00 -3.0269317065e+01 3.1879386357e+01 1.0566000000e-01 0.0000e+00 1.0000e+00
       13  1    1    2    0    0 +3.6071210181e+01 -2.1124966318e+02 -8.0246359859e+01 2.2883846231e+02 1.0566000000e-01 0.0000e+00 -1.0000e+00
      -13  1    1    2    0    0 -1.2632824410e+02 +3.1724709516e+02 -1.9041568438e+02 3.9097658327e+02 1.0566000000e-01 0.0000e+00 -1.0000e+00
       13  1    1    2    0    0 +9.6649836948e+01 -1.1369058636e+02 -6.2167304039e+01 1.6165248301e+02 1.0566000000e-01 0.0000e+00 1.0000e+00
<mgrwt>
<rscale>  0 0.72779981E+03</rscale>
<asrwt>0</asrwt>
<pdfrwt beam="1">  1        2 0.14705569E+00 0.72779981E+03</pdfrwt>
<pdfrwt beam="2">  1       -2 0.56281032E-01 0.72779981E+03</pdfrwt>
<totfact> 0.80987746E+01</totfact>
</mgrwt>
</event>
<event>
 6      1 +1.8175624e-03 2.26157100e+02 7.81860800e-03 1.12937400e-01
       -2 -1    0    0    0  501 -0.0000000000e+00 +0.0000000000e+00 +5.5014338732e+01 5.5014338791e+01 2.5500000000e-03 0.0000e+00 -1.0000e+00
        2 -1    0    0  501    0 +0.0000000000e+00 -0.0000000000e+00 -2.3242591836e+02 2.3242591837e+02 2.5500000000e-03 0.0000e+00 1.0000e+00
      -13  1    1    2    0    0 -7.8825166760e+00 +7.0112538807e+01 -5.1211179411e+01 8.7180836356e+01 1.0566000000e-01 0.0000e+00 -1.0000e+00
       13  1    1    2    0    0 -1.8426530631e+01 -2.9553002877e+01 -2.3482769879e+01 4.2004388525e+01 1.0566000000e-01 0.0000e+00 1.0000e+00
      -13  1    1    2    0    0 +5.2848532845e+01 -2.7370213629e+01 -1.1231008791e+02 1.2710492920e+02 1.0566000000e-01 0.0000e+00 1.0000e+00
       13  1    1    2    0    0 -2.6539485539e+01 -1.3189322300e+01 +9.5924575722e+00 3.1150103077e+01 1.0566000000e-01 0.0000e+00 -1.0000e+00
<mgrwt>
<rscale>  0 0.22615710E+03</rscale>
<asrwt>0</asrwt>
<pdfrwt beam="1">  1        2 0.58106477E-01 0.22615710E+03</pdfrwt>
<pdfrwt beam="2">  1       -2 0.13753585E-01 0.22615710E+03</pdfrwt>
<totfact> 0.33249936E+03</totfact>
</mgrwt>
</event>
<event>
 6      1 +1.8175624e-03 2.30009000e+02 7.81860800e-03 1.12663300e-01
        1 -1    0    0  501    0 +0.0000000000e+00 +0.0000000000e+00 +3.2688964776e+02 3.2688964780e+02 5.0400000000e-03 0.0000e+00 -1.0000e+00
       -1 -1    0    0    0  501 -0.0000000000e+00 -0.0000000000e+00 -4.0460256653e+01 4.0460256967e+01 5.0400000000e-03 0.0000e+00 1.0000e+00
      -13  1    1    2    0    0 +1.7462832541e+01 +8.1090345833e+01 +1.4024208545e+02 1.6293694610e+02 1.0566000000e-01 0.0000e+00 -1.0000e+00
       13  1    1    2    0    0 -3.9909569363e+01 -1.4503009078e+01 +5.4223558110e+01 6.8871738886e+01 1.0566000000e-01 0.0000e+00 1.0000e+00
      -13  1    1    2    0    0 +1.5064166074e+01 -2.3783302494e+01 -5.6367566124e+00 2.8711648615e+01 1.0566000000e-01 0.0000e+00 1.0000e+00
       13  1    1    2    0    0 +7.3825707484e+00 -4.2804034262e+01 +9.7600504158e+01 1.0682957117e+02 1.0566000000e-01 0.0000e+00 -1.0000e+00
<mgrwt>
<rscale>  0 0.23000904E+03</rscale>
<asrwt>0</asrwt>
<pdfrwt beam="1">  1        1 0.81722410E-01 0.23000904E+03</pdfrwt>
<pdfrwt beam="2">  1       -1 0.10115064E-01 0.23000904E+03</pdfrwt>
<totfact> 0.24757342E+03</totfact>
</mgrwt>
</event>
<event>
 6      1 +1.8175624e-03 3.06626800e+02 7.81860800e-03 1.08197400e-01
        2 -1    0    0  501    0 +0.0000000000e+00 +0.0000000000e+00 +8.0436805609e+01 8.0436805650e+01 2.5500000000e-03 0.0000e+00 -1.0000e+00
       -2 -1    0    0    0  501 -0.0000000000e+00 -0.0000000000e+00 -2.9221700032e+02 2.9221700033e+02 2.5500000000e-03 0.0000e+00 1.0000e+00
      -13  1    1    2    0    0 -1.1532463934e+01 +7.7247226835e+01 -1.6362963674e+02 1.8131409477e+02 1.0566000000e-01 0.0000e+00 1.0000e+00
       13  1    1    2    0    0 +2.9272889552e+01 -1.7787695620e+01 -3.1813892663e+01 4.6748680287e+01 1.0566000000e-01 0.0000e+00 -1.0000e+00
      -13  1    1    2    0    0 -1.9746381517e+00 -1.6588269998e+01 -7.1238836061e+01 7.3171393486e+01 1.0566000000e-01 0.0000e+00 1.0000e+00
       13  1    1    2    0    0 -1.5765787467e+01 -4.2871261217e+01 +5.4902170760e+01 7.1419637432e+01 1.0566000000e-01 0.0000e+00 -1.0000e+00
<mgrwt>
<rscale>  0 0.30662682E+03</rscale>
<asrwt>0</asrwt>
<pdfrwt beam="1">  1        2 0.20109202E-01 0.30662682E+03</pdfrwt>
<pdfrwt beam="2">  1       -2 0.73054248E-01 0.30662682E+03</pdfrwt>
<totfact> 0.48130693E+02</totfact>
</mgrwt>
</event>
<event>
 7      1 +1.8175624e-03 9.09387200e+01 7.81860800e-03 1.30059400e-01
       -1 -1    0    0    0  501 -0.0000000000e+00 +0.0000000000e+00 +2.3930890030e+01 2.3930890561e+01 5.0400000000e-03 0.0000e+00 1.0000e+00
        1 -1    0    0  501    0 +0.0000000000e+00 -0.0000000000e+00 -8.6393051609e+01 8.6393051756e+01 5.0400000000e-03 0.0000e+00 -1.0000e+00
       23  2    1    2    0    0 -1.7763568394e-15 -3.5527136788e-15 -6.2462161579e+01 1.1032394232e+02 9.0938719032e+01 0.0000e+00 0.0000e+00
      -13  1    3    3    0    0 -5.6139429575e+00 +1.6504490239e+01 +5.2597563997e+00 1.8209633577e+01 1.0566000000e-01 0.0000e+00 1.0000e+00
       13  1    3    3    0    0 +1.7233495807e+01 +1.1639347088e+01 -1.1159283309e+01 2.3601028503e+01 1.0566000000e-01 0.0000e+00 -1.0000e+00
      -13  1    3    3    0    0 -1.5981866951e+01 -7.8432083097e+00 -2.3733455318e+01 2.9668570124e+01 1.0566000000e-01 0.0000e+00 1.0000e+00
       13  1    3    3    0    0 +4.3623141013e+00 -2.0300629018e+01 -3.2829179352e+01 3.8844710113e+01 1.0566000000e-01 0.0000e+00 -1.0000e+00
<mgrwt>
<rscale>  0 0.90938719E+02</rscale>
<asrwt>0</asrwt>
<pdfrwt beam="1">  1        1 0.21598262E-01 0.90938719E+02</pdfrwt>
<pdfrwt beam="2">  1       -1 0.59827228E-02 0.90938719E+02</pdfrwt>
<totfact> 0.27301142E+04</totfact>
</mgrwt>
</event>
<event>
 6      1 +1.8175624e-03 2.39566900e+02 7.81860800e-03 1.12008200e-01
       -1 -1    0    0    0  501 -0.0000000000e+00 +0.0000000000e+00 +3.1863335373e+01 3.1863335771e+01 5.0400000000e-03 0.0000e+00 -1.0000e+00
        1 -1    0    0  501    0 +0.0000000000e+00 -0.0000000000e+00 -4.5030049272e+02 4.5030049275e+02 5.0400000000e-03 0.0000e+00 1.0000e+00
      -13  1    1    2    0    0 +7.4704873015e+01 +1.5177976151e+01 -5.6083148384e+01 9.4638891102e+01 1.0566000000e-01 0.0000e+00 -1.0000e+00
       13  1    1    2    0    0 -1.0472657312e+01 -3.6574308264e+01 -4.5620600278e+01 5.9402078330e+01 1.0566000000e-01 0.0000e+00 1.0000e+00
      -13  1    1    2    0    0 -1.8809324922e+01 +2.7691860446e+01 -1.9859220494e+02 2.0139390474e+02 1.0566000000e-01 0.0000e+00 1.0000e+00
       13  1    1    2    0    0 -4.5422890781e+01 -6.2955283336e+00 -1.1814120375e+02 1.2672895435e+02 1.0566000000e-01 0.0000e+00 -1.0000e+00
<mgrwt>
<rscale>  0 0.23956691E+03</rscale>
<asrwt>0</asrwt>
<pdfrwt beam="1">  1        1 0.11257510E+00 0.23956691E+03</pdfrwt>
<pdfrwt beam="2">  1       -1 0.79658353E-02 0.23956691E+03</pdfrwt>
<totfact> 0.22796171E+03</totfact>
</mgrwt>
</event>
<event>
 6      1 +1.8175624e-03 4.02167300e+02 7.81860800e-03 1.04303200e-01
        1 -1    0    0  501    0 +0.0000000000e+00 +0.0000000000e+00 +4.1969898476e+02 4.1969898479e+02 5.0400000000e-03 0.0000e+00 -1.0000e+00
       -1 -1    0    0    0  501 -0.0000000000e+00 -0.0000000000e+00 -9.6341978185e+01 9.6341978317e+01 5.0400000000e-03 0.0000e+00 1.0000e+00
      -13  1    1    2    0    0 +4.4384666394e+01 +2.7322614121e+01 +1.2151799238e+02 1.3222389152e+02 1.0566000000e-01 0.0000e+00 -1.0000e+00
       13  1    1    2    0    0 -7.8594412119e+00 -6.6877564350e+01 +1.6775814826e+02 1.8076832384e+02 1.0566000000e-01 0.0000e+00 -1.0000e+00
      -13  1    1    2    0    0 +1.9933928011e+01 +3.1231138291e+01 -7.2912690774e+01 8.1786411615e+01 1.0566000000e-01 0.0000e+00 1.0000e+00
       13  1    1    2    0    0 -5.6459153193e+01 +8.3238119381e+00 +1.0699355671e+02 1.2126233614e+02 1.0566000000e-01 0.0000e+00 1.0000e+00
<mgrwt>
<rscale>  0 0.40216728E+03</rscale>
<asrwt>0</asrwt>
<pdfrwt beam="1">  1        1 0.10492474E+00 0.40216728E+03</pdfrwt>
<pdfrwt beam="2">  1       -1 0.24085495E-01 0.40216728E+03</pdfrwt>
<totfact> 0.43294365E+02</totfact>
</mgrwt>
</event>
<event>
 6      1 +1.8175624e-03 2.33111300e+02 7.81860800e-03 1.12446900e-01
       -2 -1    0    0    0  501 -0.0000000000e+00 +0.0000000000e+00 +4.0487616862e+01 4.0487616942e+01 2.5500000000e-03 0.0000e+00 1.0000e+00
        2 -1    0    0  501    0 +0.0000000000e+00 -0.0000000000e+00 -3.3553999762e+02 3.3553999763e+02 2.5500000000e-03 0.0000e+00 -1.0000e+00
      -13  1    1    2    0    0 +1.6155389272e+00 -3.8997828299e+01 -1.2267332866e+01 4.0913802044e+01 1.0566000000e-01 0.0000e+00 1.0000e+00
       13  1    1    2    0    0 -5.1258081872e+01 +6.1873380058e+00 -7.6139186450e+01 9.1993809498e+01 1.0566000000e-01 0.0000e+00 1.0000e+00
      -13  1    1    2    0    0 +3.6505435562e+01 -2.7000067708e+01 -2.5879147833e+01 5.2262720350e+01 1.0566000000e-01 0.0000e+00 -1.0000e+00
       13  1    1    2    0    0 +1.3137107382e+01 +5.9810558001e+01 -1.8076671361e+02 1.9085728268e+02 1.0566000000e-01 0.0000e+00 -1.0000e+00
<mgrwt>
<rscale>  0 0.23311126E+03</rscale>
<asrwt>0</asrwt>
<pdfrwt beam="1">  1        2 0.83884991E-01 0.23311126E+03</pdfrwt>
<pdfrwt beam="2">  1       -2 0.10121905E-01 0.23311126E+03</pdfrwt>
<totfact> 0.36383441E+03</totfact>
</mgrwt>
</event>
<event>
 6      1 +1.8175624e-03 3.00951500e+02 7.81860800e-03 1.08476600e-01
       -1 -1    0    0    0  501 -0.0000000000e+00 +0.0000000000e+00 +3.9585760898e+01 3.9585761219e+01 5.0400000000e-03 0.0000e+00 1.0000e+00
        1 -1    0    0  501    0 +0.0000000000e+00 -0.0000000000e+00 -5.7199740368e+02 5.7199740370e+02 5.0400000000e-03 0.0000e+00 -1.0000e+00
      -13  1    1    2    0    0 -2.8946773782e+01 -3.5361485308e+01 -4.0854534340e+01 6.1298079054e+01 1.0566000000e-01 0.0000e+00 -1.0000e+00
       13  1    1    2    0    0 -1.6134981459e+01 +2.9817160526e+01 -1.7974153343e+02 1.8291099118e+02 1.0566000000e-01 0.0000e+00 1.0000e+00
      -13  1    1    2    0    0 +9.1672375332e+01 -4.3341655186e+01 -2.6883951164e+02 2.8732737018e+02 1.0566000000e-01 0.0000e+00 1.0000e+00
       13  1    1    2    0    0 -4.6590620091e+01 +4.8885979968e+01 -4.2976063372e+01 8.0046724511e+01 1.0566000000e-01 0.0000e+00 -1.0000e+00
<mgrwt>
<rscale>  0 0.30095151E+03</rscale>
<asrwt>0</asrwt>
<pdfrwt beam="1">  1        1 0.14299932E+00 0.30095151E+03</pdfrwt>
<pdfrwt beam="2">  1       -1 0.98964421E-02 0.30095151E+03</pdfrwt>
<totfact> 0.11222944E+03</totfact>
</mgrwt>
</event>
<event>
 6      1 +1.8175624e-03 2.81197100e+02 7.81860800e-03 1.09503700e-01
       -2 -1    0    0    0  501 -0.0000000000e+00 +0.0000000000e+00 +1.3436184246e+02 1.3436184248e+02 2.5500000000e-03 0.0000e+00 1.0000e+00
        2 -1    0    0  501    0 +0.0000000000e+00 -0.0000000000e+00 -1.4712478714e+02 1.4712478717e+02 2.5500000000e-03 0.0000e+00 -1.0000e+00
      -13  1    1    2    0    0 +6.0689001108e+01 -1.8099729273e+01 +3.7391267932e+01 7.3545041552e+01 1.0566000000e-01 0.0000e+00 1.0000e+00
       13  1    1    2    0    0 -2.4489406106e+01 -3.1732695630e+01 +3.7821362428e+01 5.5110449130e+01 1.0566000000e-01 0.0000e+00 -1.0000e+00
      -13  1    1    2    0    0 -3.7663735683e+01 +2.8891722170e+01 -1.1157101766e+02 1.2124929584e+02 1.0566000000e-01 0.0000e+00 -1.0000e+00
       13  1    1    2    0    0 +1.4641406811e+00 +2.0940702733e+01 +2.3595442615e+01 3.1581843124e+01 1.0566000000e-01 0.0000e+00 1.0000e+00
<mgrwt>
<rscale>  0 0.28119714E+03</rscale>
<asrwt>0</asrwt>
<pdfrwt beam="1">  1        2 0.36781197E-01 0.28119714E+03</pdfrwt>
<pdfrwt beam="2">  1       -2 0.33590461E-01 0.28119714E+03</pdfrwt>
<totfact> 0.11630640E+03</totfact>
</mgrwt>
</event>
<event>
 6      1 +1.8175624e-03 3.30301500e+02 7.81860800e-03 1.07100400e-01
       -2 -1    0    0    0  501 -0.0000000000e+00 +0.0000000000e+00 +3.0018862951e+02 3.0018862953e+02 2.5500000000e-03 0.0000e+00 1.0000e+00
        2 -1    0    0  501    0 +0.0000000000e+00 -0.0000000000e+00 -9.0858756942e+01 9.0858756978e+01 2.5500000000e-03 0.0000e+00 -1.0000e+00
      -13  1    1    2    0    0 +1.3893079084e+01 -1.0496608128e+02 +1.6793705129e+02 1.9852899090e+02 1.0566000000e-01 0.0000e+00 1.0000e+00
       13  1    1    2    0    0 +5.3914744126e+00 +5.7183518511e+01 +8.5957012922e+01 1.0338105252e+02 1.0566000000e-01 0.0000e+00 1.0000e+00
      -13  1    1    2    0    0 -3.1863887049e+01 +4.5833493613e+00 -1.7806559793e+01 3.6788573293e+01 1.0566000000e-01 0.0000e+00 -1.0000e+00
       13  1    1    2    0    0 +1.2579333552e+01 +4.3199213412e+01 -2.6757631852e+01 5.2348769788e+01 1.0566000000e-01 0.0000e+00 -1.0000e+00
<mgrwt>
<rscale>  0 0.33030147E+03</rscale>
<asrwt>0</asrwt>
<pdfrwt beam="1">  1        2 0.22714689E-01 0.33030147E+03</pdfrwt>
<pdfrwt beam="2">  1       -2 0.75047157E-01 0.33030147E+03</pdfrwt>
<totfact> 0.39471102E+02</totfact>
</mgrwt>
</event>
<event>
 6      1 +1.8175624e-03 5.69167300e+02 7.81860800e-03 9.97152300e-02
        2 -1    0    0  501    0 +0.0000000000e+00 +0.0000000000e+00 +1.1053125842e+03 1.1053125842e+03 2.5500000000e-03 0.0000e+00 -1.0000e+00
       -2 -1    0    0    0  501 -0.0000000000e+00 -0.0000000000e+00 -7.3271447870e+01 7.3271447914e+01 2.5500000000e-03 0.0000e+00 1.0000e+00
      -13  1    1    2    0    0 -1.6700448243e+02 -2.8866632193e+01 +7.7174426007e+02 7.9013479465e+02 1.0566000000e-01 0.0000e+00 1.0000e+00
       13  1    1    2    0    0 +5.8636542745e+01 -8.6292573216e+00 +5.5645261476e+01 8.1296460659e+01 1.0566000000e-01 0.0000e+00 -1.0000e+00
      -13  1    1    2    0    0 +5.5921928609e+01 +7.2030154559e+01 -1.9582334942e+00 9.1211025142e+01 1.0566000000e-01 0.0000e+00 1.0000e+00
       13  1    1    2    0    0 +5.2446011081e+01 -3.4534265044e+01 +2.0660984824e+02 2.1594175163e+02 1.0566000000e-01 0.0000e+00 -1.0000e+00
<mgrwt>
<rscale>  0 0.56916730E+03</rscale>
<asrwt>0</asrwt>
<pdfrwt beam="1">  1        2 0.27632815E+00 0.56916730E+03</pdfrwt>
<pdfrwt beam="2">  1       -2 0.18317862E-01 0.56916730E+03</pdfrwt>
<totfact> 0.22363626E+02</totfact>
</mgrwt>
</event>
<event>
 6      1 +1.8175624e-03 6.61198100e+02 7.81860800e-03 9.78599100e-02
        2 -1    0    0  501    0 +0.0000000000e+00 +0.0000000000e+00 +1.6343627363e+02 1.6343627365e+02 2.5500000000e-03 0.0000e+00 1.0000e+00
       -2 -1    0    0    0  501 -0.0000000000e+00 -0.0000000000e+00 -6.6873603600e+02 6.6873603600e+02 2.5500000000e-03 0.0000e+00 -1.0000e+00
      -13  1    1    2    0    0 +9.3626097349e+00 +1.1491416576e+01 -8.9290717491e+01 9.0512731205e+01 1.0566000000e-01 0.0000e+00 1.0000e+00
       13  1    1    2    0    0 +1.5041242885e+02 +7.3469998792e+01 +9.5867227321e+01 1.9290483642e+02 1.0566000000e-01 0.0000e+00 1.0000e+00
      -13  1    1    2    0    0 -1.2456968765e+02 -5.5196192870e+01 -2.6896020932e+02 3.0150262378e+02 1.0566000000e-01 0.0000e+00 -1.0000e+00
       13  1    1    2    0    0 -3.5205350942e+01 -2.9765222499e+01 -2.4291606288e+02 2.4725211824e+02 1.0566000000e-01 0.0000e+00 -1.0000e+00
<mgrwt>
<rscale>  0 0.66119808E+03</rscale>
<asrwt>0</asrwt>
<pdfrwt beam="1">  1        2 0.40859070E-01 0.66119808E+03</pdfrwt>
<pdfrwt beam="2">  1       -2 0.16718400E+00 0.66119808E+03</pdfrwt>
<totfact> 0.28633279E+01</totfact>
</mgrwt>
</event>
<event>
 6      1 +1.8175624e-03 3.26157100e+02 7.81860800e-03 1.07285000e-01
       -1 -1    0    0    0  501 -0.0000000000e+00 +0.0000000000e+00 +1.7528592757e+02 1.7528592764e+02 5.0400000000e-03 0.0000e+00 1.0000e+00
        1 -1    0    0  501    0 +0.0000000000e+00 -0.0000000000e+00 -1.5172137025e+02 1.5172137033e+02 5.0400000000e-03 0.0000e+00 -1.0000e+00
      -13  1    1    2    0    0 -3.8794628327e+01 -6.4244492230e+01 +5.7575101307e+01 9.4590070427e+01 1.0566000000e-01 0.0000e+00 1.0000e+00
       13  1    1    2    0    0 +4.8832591832e+01 -1.2687128556e+01 +3.0829414959e+01 5.9127398444e+01 1.0566000000e-01 0.0000e+00 -1.0000e+00
      -13  1    1    2    0    0 -5.8877364108e+01 +4.5266447000e+01 +1.3712458374e+01 7.5522433138e+01 1.0566000000e-01 0.0000e+00 1.0000e+00
       13  1    1    2    0    0 +4.8839400604e+01 +3.1665173786e+01 -7.8552417322e+01 9.7767395963e+01 1.0566000000e-01 0.0000e+00 -1.0000e+00
<mgrwt>
<rscale>  0 0.32615715E+03</rscale>
<asrwt>0</asrwt>
<pdfrwt beam="1">  1        1 0.37930343E-01 0.32615715E+03</pdfrwt>
<pdfrwt beam="2">  1       -1 0.43821482E-01 0.32615715E+03</pdfrwt>
<totfact> 0.59030864E+02</totfact>
</mgrwt>
</event>
<event>
 6      1 +1.8175624e-03 5.27415900e+02 7.81860800e-03 1.00686100e-01
        2 -1    0    0  501    0 +0.0000000000e+00 +0.0000000000e+00 +6.8360200947e+02 6.8360200948e+02 2.5500000000e-03 0.0000e+00 1.0000e+00
       -2 -1    0    0    0  501 -0.0000000000e+00 -0.0000000000e+00 -1.0172861737e+02 1.0172861740e+02 2.5500000000e-03 0.0000e+00 -1.0000e+00
      -13  1    1    2    0    0 -2.5580919075e+01 +1.7248609658e+02 +1.8279988288e+02 2.5262946241e+02 1.0566000000e-01 0.0000e+00 -1.0000e+00
       13  1    1    2    0    0 +2.7716071777e+01 +4.0753801156e+01 -9.5496127349e+00 5.0202183327e+01 1.0566000000e-01 0.0000e+00 -1.0000e+00
      -13  1    1    2    0    0 -3.3886618881e+01 -2.0186218719e+01 +1.3674015141e+01 4.1746571350e+01 1.0566000000e-01 0.0000e+00 1.0000e+00
       13  1    1    2    0    0 +3.1751466179e+01 -1.9305367902e+02 +3.9494910683e+02 4.4075240979e+02 1.0566000000e-01 0.0000e+00 1.0000e+00
<mgrwt>
<rscale>  0 0.52741592E+03</rscale>
<asrwt>0</asrwt>
<pdfrwt beam="1">  1        2 0.17090050E+00 0.52741592E+03</pdfrwt>
<pdfrwt beam="2">  1       -2 0.25432155E-01 0.52741592E+03</pdfrwt>
<totfact> 0.30493085E+02</totfact>
</mgrwt>
</event>
<event>
 6      1 +1.8175624e-03 3.07999900e+02 7.81860800e-03 1.08130900e-01
        2 -1    0    0  501    0 +0.0000000000e+00 +0.0000000000e+00 +1.0875569864e+02 1.0875569867e+02 2.5500000000e-03 0.0000e+00 1.0000e+00
       -2 -1    0    0    0  501 -0.0000000000e+00 -0.0000000000e+00 -2.1806657154e+02 2.1806657155e+02 2.5500000000e-03 0.0000e+00 -1.0000e+00
      -13  1    1    2    0    0 -1.8992726543e+01 +2.6516554886e+01 -1.9364249784e+01 3.7932000716e+01 1.0566000000e-01 0.0000e+00 1.0000e+00
       13  1    1    2    0    0 -8.0592828116e+00 -4.6576268867e+01 +6.0919101761e+00 4.7659452312e+01 1.0566000000e-01 0.0000e+00 1.0000e+00
      -13  1    1    2    0    0 -5.9532121072e+01 -1.3305067825e+01 -1.2905181344e+02 1.4274270554e+02 1.0566000000e-01 0.0000e+00 -1.0000e+00
       13  1    1    2    0    0 +8.6584130427e+01 +3.3364781806e+01 +3.3013280144e+01 9.8488111652e+01 1.0566000000e-01 0.0000e+00 -1.0000e+00
<mgrwt>
<rscale>  0 0.30799989E+03</rscale>
<asrwt>0</asrwt>
<pdfrwt beam="1">  1        2 0.27188925E-01 0.30799989E+03</pdfrwt>
<pdfrwt beam="2">  1       -2 0.54516642E-01 0.30799989E+03</pdfrwt>
<totfact> 0.63291993E+02</totfact>
</mgrwt>
</event>
<event>
 6      1 +1.8175624e-03 3.52207500e+02 7.81860800e-03 1.06171300e-01
        2 -1    0    0  501    0 +0.0000000000e+00 +0.0000000000e+00 +3.1953003645e+02 3.1953003646e+02 2.5500000000e-03 0.0000e+00 -1.0000e+00
       -2 -1    0    0    0  501 -0.0000000000e+00 -0.0000000000e+00 -9.7056674318e+01 9.7056674352e+01 2.5500000000e-03 0.0000e+00 1.0000e+00
      -13  1    1    2    0    0 +3.8843462348e+01 -2.1806022021e+01 -2.3048199611e+01 5.0155237342e+01 1.0566000000e-01 0.0000e+00 -1.0000e+00
       13  1    1    2    0    0 -4.5513687648e+01 +1.7015904708e+01 +1.8957804685e+01 5.2157897761e+01 1.0566000000e-01 0.0000e+00 1.0000e+00
      -13  1    1    2    0    0 -2.2011914863e+01 -5.1894619484e+01 -1.9880339285e+01 5.9773028879e+01 1.0566000000e-01 0.0000e+00 1.0000e+00
       13  1    1    2    0    0 +2.8682140163e+01 +5.6684736797e+01 +2.4644409634e+02 2.5450054683e+02 1.0566000000e-01 0.0000e+00 -1.0000e+00
<mgrwt>
<rscale>  0 0.35220745E+03</rscale>
<asrwt>0</asrwt>
<pdfrwt beam="1">  1        2 0.79882509E-01 0.35220745E+03</pdfrwt>
<pdfrwt beam="2">  1       -2 0.24264169E-01 0.35220745E+03</pdfrwt>
<totfact> 0.89617698E+02</totfact>
</mgrwt>
</event>
<event>
 6      1 +1.8175624e-03 1.46430300e+02 7.81860800e-03 1.20492900e-01
        2 -1    0    0  501    0 +0.0000000000e+00 +0.0000000000e+00 +7.1161177336e+01 7.1161177381e+01 2.5500000000e-03 0.0000e+00 -1.0000e+00
       -2 -1    0    0    0  501 -0.0000000000e+00 -0.0000000000e+00 -7.5328422238e+01 7.5328422281e+01 2.5500000000e-03 0.0000e+00 1.0000e+00
      -13  1    1    2    0    0 -4.2320324627e-01 +4.5381589849e+01 -2.1212039734e+01 5.0096203369e+01 1.0566000000e-01 0.0000e+00 1.0000e+00
       13  1    1    2    0    0 -1.2764202718e+01 +6.6237336400e+00 -2.0945273313e+00 1.4532615977e+01 1.0566000000e-01 0.0000e+00 -1.0000e+00
      -13  1    1    2    0    0 -1.1541251953e+01 -1.0691530604e+01 -1.5856536707e+01 2.2337194176e+01 1.0566000000e-01 0.0000e+00 1.0000e+00
       13  1    1    2    0    0 +2.4728657917e+01 -4.1313792885e+01 +3.4995858870e+01 5.9523586141e+01 1.0566000000e-01 0.0000e+00 -1.0000e+00
<mgrwt>
<rscale>  0 0.14643031E+03</rscale>
<asrwt>0</asrwt>
<pdfrwt beam="1">  1        2 0.17790294E-01 0.14643031E+03</pdfrwt>
<pdfrwt beam="2">  1       -2 0.18832106E-01 0.14643031E+03</pdfrwt>
<totfact> 0.70641044E+03</totfact>
</mgrwt>
</event>
<event>
 6      1 +1.8175624e-03 2.89336300e+02 7.81860800e-03 1.09069600e-01
        2 -1    0    0  501    0 +0.0000000000e+00 +0.0000000000e+00 +4.0060096373e+02 4.0060096374e+02 2.5500000000e-03 0.0000e+00 1.0000e+00
       -2 -1    0    0    0  501 -0.0000000000e+00 -0.0000000000e+00 -5.2243680385e+01 5.2243680447e+01 2.5500000000e-03 0.0000e+00 -1.0000e+00
      -13  1    1    2    0    0 +7.2573057546e+01 +2.0870868320e+01 +1.6831002848e+02 1.8447416805e+02 1.0566000000e-01 0.0000e+00 -1.0000e+00
       13  1    1    2    0    0 -9.0589829968e+01 -2.2875566143e+01 +1.2703366905e+02 1.5769392206e+02 1.0566000000e-01 0.0000e+00 1.0000e+00
      -13  1    1    2    0    0 +3.2314929699e+01 +4.2163808777e+01 +2.0015777990e+01 5.6768688417e+01 1.0566000000e-01 0.0000e+00 -1.0000e+00
       13  1    1    2    0    0 -1.4298157277e+01 -4.0159110953e+01 +3.2997807827e+01 5.3907865655e+01 1.0566000000e-01 0.0000e+00 1.0000e+00
<mgrwt>
<rscale>  0 0.28933627E+03</rscale>
<asrwt>0</asrwt>
<pdfrwt beam="1">  1        2 0.10015024E+00 0.28933627E+03</pdfrwt>
<pdfrwt beam="2">  1       -2 0.13060920E-01 0.28933627E+03</pdfrwt>
<totfact> 0.19707428E+03</totfact>
</mgrwt>
</event>
<event>
 6      1 +1.8175624e-03 3.13622700e+02 7.81860800e-03 1.07862200e-01
       -1 -1    0    0    0  501 -0.0000000000e+00 +0.0000000000e+00 +3.0043148258e+02 3.0043148262e+02 5.0400000000e-03 0.0000e+00 -1.0000e+00
        1 -1    0    0  501    0 +0.0000000000e+00 -0.0000000000e+00 -8.1848302355e+01 8.1848302510e+01 5.0400000000e-03 0.0000e+00 1.0000e+00
      -13  1    1    2    0    0 -1.9884145841e+01 +2.8092656010e+01 -1.5373638052e+00 3.4452158554e+01 1.0566000000e-01 0.0000e+00 -1.0000e+00
       13  1    1    2    0    0 -2.2187553255e+01 -6.9495022359e+01 +4.0112228215e+01 8.3251712706e+01 1.0566000000e-01 0.0000e+00 1.0000e+00
      -13  1    1    2    0    0 +3.3802140777e+01 +1.1193168780e+02 +1.4229055588e+02 1.8416813218e+02 1.0566000000e-01 0.0000e+00 1.0000e+00
       13  1    1    2    0    0 +8.2695583188e+00 -7.0529321446e+01 +3.7717759939e+01 8.0407781696e+01 1.0566000000e-01 0.0000e+00 -1.0000e+00
<mgrwt>
<rscale>  0 0.31362275E+03</rscale>
<asrwt>0</asrwt>
<pdfrwt beam="1">  1        1 0.20462076E-01 0.31362275E+03</pdfrwt>
<pdfrwt beam="2">  1       -1 0.75107870E-01 0.31362275E+03</pdfrwt>
<totfact> 0.46161577E+02</totfact>
</mgrwt>
</event>
<event>
 6      1 +1.8175624e-03 2.19342800e+02 7.81860800e-03 1.13437400e-01
       -2 -1    0    0    0  501 -0.0000000000e+00 +0.0000000000e+00 +1.6305122010e+01 1.6305122209e+01 2.5500000000e-03 0.0000e+00 -1.0000e+00
        2 -1    0    0  501    0 +0.0000000000e+00 -0.0000000000e+00 -7.3767089429e+02 7.3767089429e+02 2.5500000000e-03 0.0000e+00 1.0000e+00
      -13  1    1    2    0    0 -2.1017840634e+01 +1.7635883360e+01 -9.9500432783e+01 1.0321395882e+02 1.0566000000e-01 0.0000e+00 -1.0000e+00
       13  1    1    2    0    0 +6.9083787797e+01 -1.2492141500e+01 -4.0844691488e+02 4.1443638447e+02 1.0566000000e-01 0.0000e+00 1.0000e+00
      -13  1    1    2    0    0 -4.1430762735e+01 +5.5079383425e+00 -2.1873788609e+02 2.2269512671e+02 1.0566000000e-01 0.0000e+00 1.0000e+00
       13  1    1    2    0    0 -6.6351844280e+00 -1.0651680202e+01 +5.3194614733e+00 1.3630546502e+01 1.0566000000e-01 0.0000e+00 -1.0000e+00
<mgrwt>
<rscale>  0 0.21934278E+03</rscale>
<asrwt>0</asrwt>
<pdfrwt beam="1">  1        2 0.18441761E+00 0.21934278E+03</pdfrwt>
<pdfrwt beam="2">  1       -2 0.40762830E-02 0.21934278E+03</pdfrwt>
<totfact> 0.53116571E+03</totfact>
</mgrwt>
</event>
<event>
 6      1 +1.8175624e-03 3.17383000e+02 7.81860800e-03 1.07686000e-01
        2 -1    0    0  501    0 +0.0000000000e+00 +0.0000000000e+00 +9.7209184986e+01 9.7209185020e+01 2.5500000000e-03 0.0000e+00 -1.0000e+00
       -2 -1    0    0    0  501 -0.0000000000e+00 -0.0000000000e+00 -2.5905985444e+02 2.5905985446e+02 2.5500000000e-03 0.0000e+00 1.0000e+00
      -13  1    1    2    0    0 -9.3359183739e+01 -7.8106262876e+01 -4.3933198951e+01 1.2940889700e+02 1.0566000000e-01 0.0000e+00 -1.0000e+00
       13  1    1    2    0    0 +1.9075070462e+01 +6.2100645044e+00 -1.1930783485e+01 2.3340479277e+01 1.0566000000e-01 0.0000e+00 1.0000e+00
      -13  1    1    2    0    0 +3.0177748757e+01 -4.1778715792e+01 -2.6329715369e+01 5.7874197089e+01 1.0566000000e-01 0.0000e+00 1.0000e+00
       13  1    1    2    0    0 +4.4106364520e+01 +1.1367491416e+02 -7.9656971651e+01 1.4564546611e+02 1.0566000000e-01 0.0000e+00 -1.0000e+00
<mgrwt>
<rscale>  0 0.31738303E+03</rscale>
<asrwt>0</asrwt>
<pdfrwt beam="1">  1        2 0.24302297E-01 0.31738303E+03</pdfrwt>
<pdfrwt beam="2">  1       -2 0.64764962E-01 0.31738303E+03</pdfrwt>
<totfact> 0.50199162E+02</totfact>
</mgrwt>
</event>
<event>
 6      1 +1.8175624e-03 2.70923900e+02 7.81860800e-03 1.10075200e-01
        2 -1    0    0  501    0 +0.0000000000e+00 +0.0000000000e+00 +2.3917516085e+02 2.3917516086e+02 2.5500000000e-03 0.0000e+00 1.0000e+00
       -2 -1    0    0    0  501 -0.0000000000e+00 -0.0000000000e+00 -7.6721781878e+01 7.6721781920e+01 2.5500000000e-03 0.0000e+00 -1.0000e+00
      -13  1    1    2    0    0 +1.6603627708e+01 -1.3141599770e+01 -1.7971311390e+00 2.1251422116e+01 1.0566000000e-01 0.0000e+00 1.0000e+00
       13  1    1    2    0    0 -6.5318728590e+01 +2.0847268799e+01 -1.5510540180e+01 7.0297460422e+01 1.0566000000e-01 0.0000e+00 -1.0000e+00
      -13  1    1    2    0    0 +1.0851118816e+01 -4.0907527671e+01 +5.1673009277e+00 4.2636659844e+01 1.0566000000e-01 0.0000e+00 -1.0000e+00
       13  1    1    2    0    0 +3.7863982066e+01 +3.3201858642e+01 +1.7459374936e+02 1.8171140040e+02 1.0566000000e-01 0.0000e+00 1.0000e+00
<mgrwt>
<rscale>  0 0.27092393E+03</rscale>
<asrwt>0</asrwt>
<pdfrwt beam="1">  1        2 0.59793790E-01 0.27092393E+03</pdfrwt>
<pdfrwt beam="2">  1       -2 0.19180446E-01 0.27092393E+03</pdfrwt>
<totfact> 0.18580397E+03</totfact>
</mgrwt>
</event>
<event>
 6      1 +1.8175624e-03 4.16008200e+02 7.81860800e-03 1.03837300e-01
       -2 -1    0    0    0  501 -0.0000000000e+00 +0.0000000000e+00 +8.1725597370e+01 8.1725597410e+01 2.5500000000e-03 0.0000e+00 1.0000e+00
        2 -1    0    0  501    0 +0.0000000000e+00 -0.0000000000e+00 -5.2940217991e+02 5.2940217991e+02 2.5500000000e-03 0.0000e+00 -1.0000e+00
      -13  1    1    2    0    0 -2.6886902740e+01 +5.8159727951e+01 +9.9387998823e-01 6.4081654596e+01 1.0566000000e-01 0.0000e+00 1.0000e+00
       13  1    1    2    0    0 +2.4129968305e+00 +2.7005136373e+01 +3.5114806972e+01 4.4363958085e+01 1.0566000000e-01 0.0000e+00 -1.0000e+00
      -13  1    1    2    0    0 -5.6775320506e+00 -9.4858362126e+01 -4.2901908051e+02 4.3941748468e+02 1.0566000000e-01 0.0000e+00 -1.0000e+00
       13  1    1    2    0    0 +3.0151437960e+01 +9.6934978023e+00 -5.4766188988e+01 6.3264679965e+01 1.0566000000e-01 0.0000e+00 1.0000e+00
<mgrwt>
<rscale>  0 0.41600822E+03</rscale>
<asrwt>0</asrwt>
<pdfrwt beam="1">  1        2 0.13235054E+00 0.41600822E+03</pdfrwt>
<pdfrwt beam="2">  1       -2 0.20431401E-01 0.41600822E+03</pdfrwt>
<totfact> 0.65181042E+02</totfact>
</mgrwt>
</event>
<event>
 6      1 +1.8175624e-03 4.10055500e+02 7.81860800e-03 1.04035200e-01
       -1 -1    0    0    0  501 -0.0000000000e+00 +0.0000000000e+00 +5.4584623125e+01 5.4584623358e+01 5.0400000000e-03 0.0000e+00 1.0000e+00
        1 -1    0    0  501    0 +0.0000000000e+00 -0.0000000000e+00 -7.7011403093e+02 7.7011403094e+02 5.0400000000e-03 0.0000e+00 -1.0000e+00
      -13  1    1    2    0    0 -3.1287706878e+01 -1.0591273432e+02 -3.3904981328e+01 1.1552483203e+02 1.0566000000e-01 0.0000e+00 1.0000e+00
       13  1    1    2    0    0 -3.9786345772e+01 +2.0569262143e+01 -1.9210957641e+02 1.9726162417e+02 1.0566000000e-01 0.0000e+00 -1.0000e+00
      -13  1    1    2    0    0 +9.3068470146e+01 +7.9589914443e+01 -4.4957623821e+02 4.6595611354e+02 1.0566000000e-01 0.0000e+00 -1.0000e+00
       13  1    1    2    0    0 -2.1994417496e+01 +5.7535577394e+00 -3.9938611848e+01 4.5956084559e+01 1.0566000000e-01 0.0000e+00 1.0000e+00
<mgrwt>
<rscale>  0 0.41005553E+03</rscale>
<asrwt>0</asrwt>
<pdfrwt beam="1">  1        1 0.19252847E+00 0.41005553E+03</pdfrwt>
<pdfrwt beam="2">  1       -1 0.13646158E-01 0.41005553E+03</pdfrwt>
<totfact> 0.38994231E+02</totfact>
</mgrwt>
</event>
<event>
 6      1 +1.8175624e-03 2.16408700e+02 7.81860800e-03 1.13658900e-01
        2 -1    0    0  501    0 +0.0000000000e+00 +0.0000000000e+00 +6.7583574619e+02 6.7583574620e+02 2.5500000000e-03 0.0000e+00 -1.0000e+00
       -2 -1    0    0    0  501 -0.0000000000e+00 -0.0000000000e+00 -1.7324004897e+01 1.7324005084e+01 2.5500000000e-03 0.0000e+00 1.0000e+00
      -13  1    1    2    0    0 -2.2693923143e+01 +5.6496320628e+01 +1.8425568068e+02 1.9405415589e+02 1.0566000000e-01 0.0000e+00 1.0000e+00
       13  1    1    2    0    0 -4.7154272074e+01 -3.1147055963e+01 +9.7452420166e+01 1.1265278439e+02 1.0566000000e-01 0.0000e+00 -1.0000e+00
      -13  1    1    2    0    0 +2.8916471685e+01 +1.1070177814e+01 +1.4344365328e+02 1.4674741566e+02 1.0566000000e-01 0.0000e+00 1.0000e+00
       13  1    1    2    0    0 +4.0931723532e+01 -3.6419442479e+01 +2.3335998717e+02 2.3970539534e+02 1.0566000000e-01 0.0000e+00 -1.0000e+00
<mgrwt>
<rscale>  0 0.21640870E+03</rscale>
<asrwt>0</asrwt>
<pdfrwt beam="1">  1        2 0.16895893E+00 0.21640870E+03</pdfrwt>
<pdfrwt beam="2">  1       -2 0.43310013E-02 0.21640870E+03</pdfrwt>
<totfact> 0.55352085E+03</totfact>
</mgrwt>
</event>
<event>
 6      1 +1.8175624e-03 5.33038200e+02 7.81860800e-03 1.00549800e-01
       -2 -1    0    0    0  501 -0.0000000000e+00 +0.0000000000e+00 +1.9971894294e+02 1.9971894296e+02 2.5500000000e-03 0.0000e+00 -1.0000e+00
        2 -1    0    0  501    0 +0.0000000000e+00 -0.0000000000e+00 -3.5566198322e+02 3.5566198323e+02 2.5500000000e-03 0.0000e+00 1.0000e+00
      -13  1    1    2    0    0 +9.5579398726e+01 -1.3372628514e+02 -2.8466827936e+01 1.6681880067e+02 1.0566000000e-01 0.0000e+00 -1.0000e+00
       13  1    1    2    0    0 -1.2556958237e+02 +1.8223521382e+02 -8.9764360449e+01 2.3882010959e+02 1.0566000000e-01 0.0000e+00 1.0000e+00
      -13  1    1    2    0    0 +4.1642047514e+00 -3.5551192353e+01 +4.7664750286e+01 5.9608451270e+01 1.0566000000e-01 0.0000e+00 1.0000e+00
       13  1    1    2    0    0 +2.5825978888e+01 -1.2957736328e+01 -8.5376602173e+01 9.0133564663e+01 1.0566000000e-01 0.0000e+00 -1.0000e+00
<mgrwt>
<rscale>  0 0.53303822E+03</rscale>
<asrwt>0</asrwt>
<pdfrwt beam="1">  1        2 0.88915495E-01 0.53303822E+03</pdfrwt>
<pdfrwt beam="2">  1       -2 0.49929736E-01 0.53303822E+03</pdfrwt>
<totfact> 0.20095943E+02</totfact>
</mgrwt>
</event>
<event>
 6      1 +1.8175624e-03 2.71157700e+02 7.81860800e-03 1.10061900e-01
       -2 -1    0    0    0  501 -0.0000000000e+00 +0.0000000000e+00 +9.3236327941e+01 9.3236327976e+01 2.5500000000e-03 0.0000e+00 1.0000e+00
        2 -1    0    0  501    0 +0.0000000000e+00 -0.0000000000e+00 -1.9715085850e+02 1.9715085851e+02 2.5500000000e-03 0.0000e+00 -1.0000e+00
      -13  1    1    2    0    0 -5.0891812830e+01 -3.4787372644e+01 +3.5689826352e+01 7.1231403031e+01 1.0566000000e-01 0.0000e+00 1.0000e+00
       13  1    1    2    0    0 +5.4079472076e+01 -8.8754379316e+00 -5.7525458390e+00 5.5104134565e+01 1.0566000000e-01 0.0000e+00 -1.0000e+00
      -13  1    1    2    0    0 -1.1996454609e+01 -2.2201618518e+01 -5.7736950183e+01 6.3011057509e+01 1.0566000000e-01 0.0000e+00 1.0000e+00
       13  1    1    2    0    0 +8.8087953624e+00 +6.5864429093e+01 -7.6114860886e+01 1.0104059138e+02 1.0566000000e-01 0.0000e+00 -1.0000e+00
<mgrwt>
<rscale>  0 0.27115768E+03</rscale>
<asrwt>0</asrwt>
<pdfrwt beam="1">  1        2 0.49287714E-01 0.27115768E+03</pdfrwt>
<pdfrwt beam="2">  1       -2 0.23309082E-01 0.27115768E+03</pdfrwt>
<totfact> 0.16358782E+03</totfact>
</mgrwt>
</event>
<event>
 6      1 +1.8175624e-03 2.84420900e+02 7.81860800e-03 1.09329900e-01
       -2 -1    0    0    0  501 -0.0000000000e+00 +0.0000000000e+00 +6.5610362087e+01 6.5610362137e+01 2.5500000000e-03 0.0000e+00 1.0000e+00
        2 -1    0    0  501    0 +0.0000000000e+00 -0.0000000000e+00 -3.0824113195e+02 3.0824113196e+02 2.5500000000e-03 0.0000e+00 -1.0000e+00
      -13  1    1    2    0    0 -5.4830647888e+01 -1.3300568475e+00 -5.8638105231e+00 5.5159445582e+01 1.0566000000e-01 0.0000e+00 1.0000e+00
       13  1    1    2    0    0 +2.9537259859e+01 -1.2693272835e+01 +8.5533895725e-01 3.2160716161e+01 1.0566000000e-01 0.0000e+00 1.0000e+00
      -13  1    1    2    0    0 +6.0579701955e+01 +6.0638338546e+01 -1.9841462689e+02 2.1613718726e+02 1.0566000000e-01 0.0000e+00 -1.0000e+00
       13  1    1    2    0    0 -3.5286313926e+01 -4.6615008864e+01 -3.9207671410e+01 7.0394145092e+01 1.0566000000e-01 0.0000e+00 -1.0000e+00
<mgrwt>
<rscale>  0 0.28442090E+03</rscale>
<asrwt>0</asrwt>
<pdfrwt beam="1">  1        2 0.77060279E-01 0.28442090E+03</pdfrwt>
<pdfrwt beam="2">  1       -2 0.16402591E-01 0.28442090E+03</pdfrwt>
<totfact> 0.18299759E+03</totfact>
</mgrwt>
</event>
<event>
 6      1 +1.8175624e-03 2.63392200e+02 7.81860800e-03 1.10512200e-01
       -2 -1    0    0    0  501 -0.0000000000e+00 +0.0000000000e+00 +1.1091657912e+02 1.1091657915e+02 2.5500000000e-03 0.0000e+00 -1.0000e+00
        2 -1    0    0  501    0 +0.0000000000e+00 -0.0000000000e+00 -1.5636850301e+02 1.5636850303e+02 2.5500000000e-03 0.0000e+00 1.0000e+00
      -13  1    1    2    0    0 +7.8924214317e+01 -1.5552193978e+00 -5.9608157020e+01 9.8917106004e+01 1.0566000000e-01 0.0000e+00 1.0000e+00
       13  1    1    2    0    0 -6.0951149137e+01 +1.5317485857e+01 +3.9256393009e+01 7.4099551350e+01 1.0566000000e-01 0.0000e+00 -1.0000e+00
      -13  1    1    2    0    0 -5.3482178776e+01 -2.5354635212e+00 -1.2838803049e+01 5.5060131217e+01 1.0566000000e-01 0.0000e+00 -1.0000e+00
       13  1    1    2    0    0 +3.5509113596e+01 -1.1226802938e+01 -1.2261356831e+01 3.9208293612e+01 1.0566000000e-01 0.0000e+00 1.0000e+00
<mgrwt>
<rscale>  0 0.26339217E+03</rscale>
<asrwt>0</asrwt>
<pdfrwt beam="1">  1        2 0.39092126E-01 0.26339217E+03</pdfrwt>
<pdfrwt beam="2">  1       -2 0.27729145E-01 0.26339217E+03</pdfrwt>
<totfact> 0.15436529E+03</totfact>
</mgrwt>
</event>
<event>
 6      1 +1.8175624e-03 3.17841000e+02 7.81860800e-03 1.07664700e-01
        1 -1    0    0  501    0 +0.0000000000e+00 +0.0000000000e+00 +3.6452303757e+02 3.6452303760e+02 5.0400000000e-03 0.0000e+00 -1.0000e+00
       -1 -1    0    0    0  501 -0.0000000000e+00 -0.0000000000e+00 -6.9284292800e+01 6.9284292984e+01 5.0400000000e-03 0.0000e+00 1.0000e+00
      -13  1    1    2    0    0 -4.4630034586e+01 +6.9277897923e+00 +5.0405747838e+00 4.5445052720e+01 1.0566000000e-01 0.0000e+00 -1.0000e+00
       13  1    1    2    0    0 +2.7438240920e+01 -4.1825593000e+01 +2.1690651515e+02 2.2259983102e+02 1.0566000000e-01 0.0000e+00 -1.0000e+00
      -13  1    1    2    0    0 -3.9129760768e+01 +3.9520382636e+01 +9.0906916448e+01 1.0656958968e+02 1.0566000000e-01 0.0000e+00 1.0000e+00
       13  1    1    2    0    0 +5.6321554433e+01 -4.6225794282e+00 -1.7615261609e+01 5.9192857170e+01 1.0566000000e-01 0.0000e+00 1.0000e+00
<mgrwt>
<rscale>  0 0.31784097E+03</rscale>
<asrwt>0</asrwt>
<pdfrwt beam="1">  1        1 0.91130757E-01 0.31784097E+03</pdfrwt>
<pdfrwt beam="2">  1       -1 0.17321074E-01 0.31784097E+03</pdfrwt>
<totfact> 0.91450067E+02</totfact>
</mgrwt>
</event>
<event>
 7      1 +1.8175624e-03 9.11636900e+01 7.81860800e-03 1.30005800e-01
        1 -1    0    0  501    0 +0.0000000000e+00 +0.0000000000e+00 +6.0842720367e+01 6.0842720576e+01 5.0400000000e-03 0.0000e+00 -1.0000e+00
       -1 -1    0    0    0  501 -0.0000000000e+00 -0.0000000000e+00 -3.4148777866e+01 3.4148778238e+01 5.0400000000e-03 0.0000e+00 1.0000e+00
       23  2    1    2    0    0 -3.5527136788e-15 -2.2204460493e-16 +2.6693942501e+01 9.4991498814e+01 9.1163689486e+01 0.0000e+00 0.0000e+00
      -13  1    3    3    0    0 -1.7805104474e+01 +3.6435609711e+00 -1.4281794349e+01 2.3114456423e+01 1.0566000000e-01 0.0000e+00 1.0000e+00
       13  1    3    3    0    0 +1.6722563339e+01 +1.9811645279e+00 -1.0590681804e+00 1.6873112546e+01 1.0566000000e-01 0.0000e+00 -1.0000e+00
      -13  1    3    3    0    0 -9.5642103610e+00 -3.7414372773e+00 -1.2891264644e+00 1.0351110269e+01 1.0566000000e-01 0.0000e+00 1.0000e+00
       13  1    3    3    0    0 +1.0646751496e+01 -1.8832882216e+00 +4.3323931494e+01 4.4652819576e+01 1.0566000000e-01 0.0000e+00 -1.0000e+00
<mgrwt>
<rscale>  0 0.91163689E+02</rscale>
<asrwt>0</asrwt>
<pdfrwt beam="1">  1        1 0.15210680E-01 0.91163689E+02</pdfrwt>
<pdfrwt beam="2">  1       -1 0.85371946E-02 0.91163689E+02</pdfrwt>
<totfact> 0.25085780E+04</totfact>
</mgrwt>
</event>
<event>
 6      1 +1.8175624e-03 2.95536900e+02 7.81860800e-03 1.08749300e-01
       -1 -1    0    0    0  501 -0.0000000000e+00 +0.0000000000e+00 +7.8866473455e+01 7.8866473616e+01 5.0400000000e-03 0.0000e+00 1.0000e+00
        1 -1    0    0  501    0 +0.0000000000e+00 -0.0000000000e+00 -2.7686687353e+02 2.7686687358e+02 5.0400000000e-03 0.0000e+00 -1.0000e+00
      -13  1    1    2    0    0 +6.3941818559e+01 +9.9809639692e+01 -1.3697022228e+01 1.1932367711e+02 1.0566000000e-01 0.0000e+00 1.0000e+00
       13  1    1    2    0    0 +9.2533289392e+00 -1.8833849618e+01 -1.0763750888e+01 2.3584051499e+01 1.0566000000e-01 0.0000e+00 -1.0000e+00
      -13  1    1    2    0    0 -2.7568565973e+01 -6.6905798267e+01 -8.0458457479e+01 1.0821268972e+02 1.0566000000e-01 0.0000e+00 1.0000e+00
       13  1    1    2    0    0 -4.5626581525e+01 -1.4069991807e+01 -9.3081169482e+01 1.0461292887e+02 1.0566000000e-01 0.0000e+00 -1.0000e+00
<mgrwt>
<rscale>  0 0.29553689E+03</rscale>
<asrwt>0</asrwt>
<pdfrwt beam="1">  1        1 0.69216716E-01 0.29553689E+03</pdfrwt>
<pdfrwt beam="2">  1       -1 0.19716619E-01 0.29553689E+03</pdfrwt>
<totfact> 0.10743407E+03</totfact>
</mgrwt>
</event>
<event>
 6      1 +1.8175624e-03 3.35915400e+02 7.81860800e-03 1.06854900e-01
       -2 -1    0    0    0  501 -0.0000000000e+00 +0.0000000000e+00 +1.0888987730e+03 1.0888987730e+03 2.5500000000e-03 0.0000e+00 1.0000e+00
        2 -1    0    0  501    0 +0.0000000000e+00 -0.0000000000e+00 -2.5906712841e+01 2.5906712966e+01 2.5500000000e-03 0.0000e+00 -1.0000e+00
      -13  1    1    2    0    0 -6.7073108724e+01 -8.3597125940e+01 +3.6093545725e+02 3.7651254540e+02 1.0566000000e-01 0.0000e+00 1.0000e+00
       13  1    1    2    0    0 +1.0617129614e+02 +5.2434850268e+01 +3.2697427159e+02 3.4775557952e+02 1.0566000000e-01 0.0000e+00 -1.0000e+00
      -13  1    1    2    0    0 -3.2759380750e+01 -2.5566239469e+01 +8.1780473646e+01 9.1732582333e+01 1.0566000000e-01 0.0000e+00 -1.0000e+00
       13  1    1    2    0    0 -6.3388066679e+00 +5.6728515141e+01 +2.9330185771e+02 2.9880477875e+02 1.0566000000e-01 0.0000e+00 1.0000e+00
<mgrwt>
<rscale>  0 0.33591539E+03</rscale>
<asrwt>0</asrwt>
<pdfrwt beam="1">  1        2 0.64766787E-02 0.33591539E+03</pdfrwt>
<pdfrwt beam="2">  1       -2 0.27222467E+00 0.33591539E+03</pdfrwt>
<totfact> 0.58832463E+01</totfact>
</mgrwt>
</event>
<event>
 6      1 +1.8175624e-03 6.78818300e+02 7.81860800e-03 9.75415700e-02
       -1 -1    0    0    0  501 -0.0000000000e+00 +0.0000000000e+00 +2.0707040196e+02 2.0707040202e+02 5.0400000000e-03 0.0000e+00 1.0000e+00
        1 -1    0    0  501    0 +0.0000000000e+00 -0.0000000000e+00 -5.5632569781e+02 5.5632569783e+02 5.0400000000e-03 0.0000e+00 -1.0000e+00
      -13  1    1    2    0    0 -1.5092629982e+01 +3.2534041083e+01 -9.0468636535e+01 9.7318223727e+01 1.0566000000e-01 0.0000e+00 1.0000e+00
       13  1    1    2    0    0 -8.2852885132e+00 +8.2155269882e+01 +9.6689879593e+00 8.3136242802e+01 1.0566000000e-01 0.0000e+00 -1.0000e+00
      -13  1    1    2    0    0 +1.5005058633e+01 -3.0523039851e+02 -8.2436613363e+01 3.1652259690e+02 1.0566000000e-01 0.0000e+00 1.0000e+00
       13  1    1    2    0    0 +8.3728598624e+00 +1.9054108755e+02 -1.8601903391e+02 2.6641903642e+02 1.0566000000e-01 0.0000e+00 -1.0000e+00
<mgrwt>
<rscale>  0 0.67881834E+03</rscale>
<asrwt>0</asrwt>
<pdfrwt beam="1">  1        1 0.13908142E+00 0.67881834E+03</pdfrwt>
<pdfrwt beam="2">  1       -1 0.51767602E-01 0.67881834E+03</pdfrwt>
<totfact> 0.69730384E+01</totfact>
</mgrwt>
</event>
<event>
 6      1 +1.8175624e-03 1.01814100e+03 7.81860800e-03 9.28886900e-02
       -2 -1    0    0    0  501 -0.0000000000e+00 +0.0000000000e+00 +4.1773472034e+02 4.1773472035e+02 2.5500000000e-03 0.0000e+00 -1.0000e+00
        2 -1    0    0  501    0 +0.0000000000e+00 -0.0000000000e+00 -6.2037682444e+02 6.2037682445e+02 2.5500000000e-03 0.0000e+00 1.0000e+00
      -13  1    1    2    0    0 +1.3745295739e+01 -5.9102596688e+01 +4.6273258839e+01 7.6310390759e+01 1.0566000000e-01 0.0000e+00 1.0000e+00
       13  1    1    2    0    0 -4.9353544281e+01 -5.6969443410e+01 -3.2679874440e+01 8.2153972350e+01 1.0566000000e-01 0.0000e+00 -1.0000e+00
      -13  1    1    2    0    0 +1.4434339689e+02 +2.8878195763e+02 +2.2498780416e+02 3.9350928638e+02 1.0566000000e-01 0.0000e+00 -1.0000e+00
       13  1    1    2    0    0 -1.0873514835e+02 -1.7270991753e+02 -4.4122329267e+02 4.8613789531e+02 1.0566000000e-01 0.0000e+00 1.0000e+00
<mgrwt>
<rscale>  0 0.10181413E+04</rscale>
<asrwt>0</asrwt>
<pdfrwt beam="1">  1        2 0.15509421E+00 0.10181413E+04</pdfrwt>
<pdfrwt beam="2">  1       -2 0.10443368E+00 0.10181413E+04</pdfrwt>
<totfact> 0.18391062E+01</totfact>
</mgrwt>
</event>
<event>
 6      1 +1.8175624e-03 1.35809900e+02 7.81860800e-03 1.21908100e-01
        2 -1    0    0  501    0 +0.0000000000e+00 +0.0000000000e+00 +2.4050975556e+02 2.4050975557e+02 2.5500000000e-03 0.0000e+00 -1.0000e+00
       -2 -1    0    0    0  501 -0.0000000000e+00 -0.0000000000e+00 -1.9172134816e+01 1.9172134985e+01 2.5500000000e-03 0.0000e+00 1.0000e+00
      -13  1    1    2    0    0 -5.2732997861e+00 -2.0762027761e+01 +1.3075945009e+01 2.5097031484e+01 1.0566000000e-01 0.0000e+00 1.0000e+00
       13  1    1    2    0    0 +1.0663493909e+01 +4.2796534640e+01 +9.9823892197e+01 1.0913328593e+02 1.0566000000e-01 0.0000e+00 -1.0000e+00
      -13  1    1    2    0    0 -1.2678967753e+01 -3.3481410909e+01 +1.0571148831e+02 1.1160954719e+02 1.0566000000e-01 0.0000e+00 -1.0000e+00
       13  1    1    2    0    0 +7.2887736304e+00 +1.1446904030e+01 +2.7262952289e+00 1.3842025958e+01 1.0566000000e-01 0.0000e+00 1.0000e+00
<mgrwt>
<rscale>  0 0.13580995E+03</rscale>
<asrwt>0</asrwt>
<pdfrwt beam="1">  1        2 0.60127439E-01 0.13580995E+03</pdfrwt>
<pdfrwt beam="2">  1       -2 0.47930337E-02 0.13580995E+03</pdfrwt>
<totfact> 0.16097141E+04</totfact>
</mgrwt>
</event>
<event>
 6      1 +1.8175624e-03 3.06889000e+02 7.81860800e-03 1.08184700e-01
        2 -1    0    0  501    0 +0.0000000000e+00 +0.0000000000e+00 +2.9069026274e+02 2.9069026276e+02 2.5500000000e-03 0.0000e+00 1.0000e+00
       -2 -1    0    0    0  501 -0.0000000000e+00 -0.0000000000e+00 -8.0997624981e+01 8.0997625021e+01 2.5500000000e-03 0.0000e+00 -1.0000e+00
      -13  1    1    2    0    0 -6.2283657072e+01 -1.8556827156e-01 +8.0355056325e+01 1.0166727406e+02 1.0566000000e-01 0.0000e+00 1.0000e+00
       13  1    1    2    0    0 +5.9298671077e+01 -5.2137225017e+01 +5.9001718180e+01 9.8568943062e+01 1.0566000000e-01 0.0000e+00 -1.0000e+00
      -13  1    1    2    0    0 -4.8966567975e+01 -3.0010722000e+01 +1.4545047265e+01 5.9244727851e+01 1.0566000000e-01 0.0000e+00 1.0000e+00
       13  1    1    2    0    0 +5.1951553970e+01 +8.2333515289e+01 +5.5790815993e+01 1.1220694280e+02 1.0566000000e-01 0.0000e+00 -1.0000e+00
<mgrwt>
<rscale>  0 0.30688904E+03</rscale>
<asrwt>0</asrwt>
<pdfrwt beam="1">  1        2 0.72672565E-01 0.30688904E+03</pdfrwt>
<pdfrwt beam="2">  1       -2 0.20249406E-01 0.30688904E+03</pdfrwt>
<totfact> 0.13674122E+03</totfact>
</mgrwt>
</event>
<event>
 6      1 +1.8175624e-03 2.39976000e+02 7.81860800e-03 1.11980900e-01
       -1 -1    0    0    0  501 -0.0000000000e+00 +0.0000000000e+00 +7.4002275279e+01 7.4002275451e+01 5.0400000000e-03 0.0000e+00 1.0000e+00
        1 -1    0    0  501    0 +0.0000000000e+00 -0.0000000000e+00 -1.9454976907e+02 1.9454976914e+02 5.0400000000e-03 0.0000e+00 -1.0000e+00
      -13  1    1    2    0    0 +1.3138879998e+01 -5.7269881576e+01 -1.3947243664e+02 1.5134411534e+02 1.0566000000e-01 0.0000e+00 -1.0000e+00
       13  1    1    2    0    0 -2.4446794557e+01 +5.2494919638e+01 -2.4421086959e+01 6.2847139984e+01 1.0566000000e-01 0.0000e+00 -1.0000e+00
      -13  1    1    2    0    0 +7.4716608389e+00 -1.1403710045e+01 +9.3971462140e+00 1.6558618284e+01 1.0566000000e-01 0.0000e+00 1.0000e+00
       13  1    1    2    0    0 +3.8362537206e+00 +1.6178671984e+01 +3.3948883588e+01 3.7802170978e+01 1.0566000000e-01 0.0000e+00 1.0000e+00
<mgrwt>
<rscale>  0 0.23997605E+03</rscale>
<asrwt>0</asrwt>
<pdfrwt beam="1">  1        1 0.48637441E-01 0.23997605E+03</pdfrwt>
<pdfrwt beam="2">  1       -1 0.18500569E-01 0.23997605E+03</pdfrwt>
<totfact> 0.18686433E+03</totfact>
</mgrwt>
</event>
<event>
 7      1 +1.8175624e-03 9.21155100e+01 7.81860800e-03 1.29780800e-01
       -2 -1    0    0    0  501 -0.0000000000e+00 +0.0000000000e+00 +3.3987111091e+01 3.3987111187e+01 2.5500000000e-03 0.0000e+00 1.0000e+00
        2 -1    0    0  501    0 +0.0000000000e+00 -0.0000000000e+00 -6.2415327803e+01 6.2415327855e+01 2.5500000000e-03 0.0000e+00 -1.0000e+00
       23  2    1    2    0    0 +1.7763568394e-15 +0.0000000000e+00 -2.8428216712e+01 9.6402439042e+01 9.2115507641e+01 0.0000e+00 0.0000e+00
      -13  1    3    3    0    0 -1.5257517305e+01 +1.7810640001e+01 +2.2240563314e+00 2.3557765645e+01 1.0566000000e-01 0.0000e+00 -1.0000e+00
       13  1    3    3    0    0 -9.0124097475e+00 +1.5180460512e+01 -8.3284235908e+00 1.9520341041e+01 1.0566000000e-01 0.0000e+00 1.0000e+00
      -13  1    3    3    0    0 -1.6943260390e+00 -1.5878292100e+01 -1.3735797714e+01 2.1063575281e+01 1.0566000000e-01 0.0000e+00 -1.0000e+00
       13  1    3    3    0    0 +2.5964253092e+01 -1.7112808413e+01 -8.5880517386e+00 3.2260757075e+01 1.0566000000e-01 0.0000e+00 1.0000e+00
<mgrwt>
<rscale>  0 0.92115508E+02</rscale>
<asrwt>0</asrwt>
<pdfrwt beam="1">  1        2 0.15603832E-01 0.92115508E+02</pdfrwt>
<pdfrwt beam="2">  1       -2 0.84967779E-02 0.92115508E+02</pdfrwt>
<totfact> 0.28131098E+04</totfact>
</mgrwt>
</event>
<event>
 6      1 +1.8175624e-03 3.10017000e+02 7.81860800e-03 1.08033800e-01
        2 -1    0    0  501    0 +0.0000000000e+00 +0.0000000000e+00 +8.9561427067e+01 8.9561427104e+01 2.5500000000e-03 0.0000e+00 -1.0000e+00
       -2 -1    0    0    0  501 -0.0000000000e+00 -0.0000000000e+00 -2.6828115109e+02 2.6828115110e+02 2.5500000000e-03 0.0000e+00 1.0000e+00
      -13  1    1    2    0    0 +4.6770600897e+01 -2.3538042966e+01 -1.7741263755e+02 1.8497779245e+02 1.0566000000e-01 0.0000e+00 1.0000e+00
       13  1    1    2    0    0 +2.0156165390e+01 -4.9485257323e+01 -1.9871388125e+01 5.7008288219e+01 1.0566000000e-01 0.0000e+00 -1.0000e+00
      -13  1    1    2    0    0 -3.8726802253e+01 +6.5242237322e+01 -8.0644896346e+00 7.6297849908e+01 1.0566000000e-01 0.0000e+00 1.0000e+00
       13  1    1    2    0    0 -2.8199964035e+01 +7.7810629668e+00 +2.6628791287e+01 3.9558647624e+01 1.0566000000e-01 0.0000e+00 -1.0000e+00
<mgrwt>
<rscale>  0 0.31001705E+03</rscale>
<asrwt>0</asrwt>
<pdfrwt beam="1">  1        2 0.22390357E-01 0.31001705E+03</pdfrwt>
<pdfrwt beam="2">  1       -2 0.67070286E-01 0.31001705E+03</pdfrwt>
<totfact> 0.51145498E+02</totfact>
</mgrwt>
</event>
<event>
 6      1 +1.8175624e-03 6.45463400e+02 7.81860800e-03 9.81532900e-02
       -2 -1    0    0    0  501 -0.0000000000e+00 +0.0000000000e+00 +7.9176382099e+01 7.9176382140e+01 2.5500000000e-03 0.0000e+00 1.0000e+00
        2 -1    0    0  501    0 +0.0000000000e+00 -0.0000000000e+00 -1.3154902588e+03 1.3154902588e+03 2.5500000000e-03 0.0000e+00 -1.0000e+00
      -13  1    1    2    0    0 -1.0403752997e+02 +4.9014990702e+01 -1.6647098348e+02 2.0233357720e+02 1.0566000000e-01 0.0000e+00 -1.0000e+00
       13  1    1    2    0    0 -5.0637479003e+00 +6.3068286916e+01 -1.7255202989e+02 1.8378646452e+02 1.0566000000e-01 0.0000e+00 1.0000e+00
      -13  1    1    2    0    0 -6.6998297102e+01 +1.3483956290e+02 -2.2160853705e+02 2.6791945505e+02 1.0566000000e-01 0.0000e+00 1.0000e+00
       13  1    1    2    0    0 +1.7609957497e+02 -2.4692284052e+02 -6.7568232627e+02 7.4062714417e+02 1.0566000000e-01 0.0000e+00 -1.0000e+00
<mgrwt>
<rscale>  0 0.64546343E+03</rscale>
<asrwt>0</asrwt>
<pdfrwt beam="1">  1        2 0.32887249E+00 0.64546343E+03</pdfrwt>
<pdfrwt beam="2">  1       -2 0.19794100E-01 0.64546343E+03</pdfrwt>
<totfact> 0.12655170E+02</totfact>
</mgrwt>
</event>
<event>
 6      1 +1.8175624e-03 4.42027100e+02 7.81860800e-03 1.03012700e-01
       -1 -1    0    0    0  501 -0.0000000000e+00 +0.0000000000e+00 +3.4321063564e+02 3.4321063568e+02 5.0400000000e-03 0.0000e+00 -1.0000e+00
        1 -1    0    0  501    0 +0.0000000000e+00 -0.0000000000e+00 -1.4232363046e+02 1.4232363055e+02 5.0400000000e-03 0.0000e+00 1.0000e+00
      -13  1    1    2    0    0 +6.9007916109e+01 -3.8798194305e+00 +1.4616271461e+01 7.0645538005e+01 1.0566000000e-01 0.0000e+00 1.0000e+00
       13  1    1    2    0    0 +2.2666633735e+01 -7.9479491247e+01 +8.7060188800e+00 8.3105786456e+01 1.0566000000e-01 0.0000e+00 -1.0000e+00
      -13  1    1    2    0    0 -1.4479783990e+02 -9.4975760047e+00 +1.7147087861e+02 2.2463056730e+02 1.0566000000e-01 0.0000e+00 -1.0000e+00
       13  1    1    2    0    0 +5.3123290052e+01 +9.2856886682e+01 +6.0938362223e+00 1.0715237447e+02 1.0566000000e-01 0.0000e+00 1.0000e+00
<mgrwt>
<rscale>  0 0.44202707E+03</rscale>
<asrwt>0</asrwt>
<pdfrwt beam="1">  1        1 0.35580908E-01 0.44202707E+03</pdfrwt>
<pdfrwt beam="2">  1       -1 0.85802658E-01 0.44202707E+03</pdfrwt>
<totfact> 0.17028824E+02</totfact>
</mgrwt>
</event>
<event>
 6      1 +1.8175624e-03 2.44422100e+02 7.81860800e-03 1.11688200e-01
        2 -1    0    0  501    0 +0.0000000000e+00 +0.0000000000e+00 +3.2342104625e+02 3.2342104626e+02 2.5500000000e-03 0.0000e+00 -1.0000e+00
       -2 -1    0    0    0  501 -0.0000000000e+00 -0.0000000000e+00 -4.6179874376e+01 4.6179874446e+01 2.5500000000e-03 0.0000e+00 1.0000e+00
      -13  1    1    2    0    0 -2.0330063751e+01 +5.2250118246e+01 +9.7334003908e+01 1.1232678144e+02 1.0566000000e-01 0.0000e+00 -1.0000e+00
       13  1    1    2    0    0 +3.7690118052e+01 -2.6876471413e+01 +1.8610202642e+02 1.9177295200e+02 1.0566000000e-01 0.0000e+00 -1.0000e+00
      -13  1    1    2    0    0 -3.5023370577e+01 -1.1794466896e+00 -5.9452621807e+00 3.5544125922e+01 1.0566000000e-01 0.0000e+00 1.0000e+00
       13  1    1    2    0    0 +1.7663316276e+01 -2.4194200143e+01 -2.4959627035e-01 2.9957061350e+01 1.0566000000e-01 0.0000e+00 1.0000e+00
<mgrwt>
<rscale>  0 0.24442212E+03</rscale>
<asrwt>0</asrwt>
<pdfrwt beam="1">  1        2 0.80855260E-01 0.24442212E+03</pdfrwt>
<pdfrwt beam="2">  1       -2 0.11544969E-01 0.24442212E+03</pdfrwt>
<totfact> 0.30766999E+03</totfact>
</mgrwt>
</event>
<event>
 6      1 +1.8175624e-03 1.37633300e+02 7.81860800e-03 1.21654900e-01
        1 -1    0    0  501    0 +0.0000000000e+00 +0.0000000000e+00 +4.0890320803e+02 4.0890320806e+02 5.0400000000e-03 0.0000e+00 -1.0000e+00
       -1 -1    0    0    0  501 -0.0000000000e+00 -0.0000000000e+00 -1.1581544431e+01 1.1581545527e+01 5.0400000000e-03 0.0000e+00 1.0000e+00
      -13  1    1    2    0    0 +8.1775674731e+00 -4.7969039848e+01 +1.9984488373e+02 2.0568395687e+02 1.0566000000e-01 0.0000e+00 -1.0000e+00
       13  1    1    2    0    0 +1.8860200101e+01 +2.8752856260e+01 +1.4004144352e+02 1.4420142495e+02 1.0566000000e-01 0.0000e+00 1.0000e+00
      -13  1    1    2    0    0 -2.0483468464e+01 +1.6817625101e-01 +2.3884465367e+01 3.1465530561e+01 1.0566000000e-01 0.0000e+00 1.0000e+00
       13  1    1    2    0    0 -6.5542991109e+00 +1.9048007336e+01 +3.3550870974e+01 3.9133841205e+01 1.0566000000e-01 0.0000e+00 -1.0000e+00
<mgrwt>
<rscale>  0 0.13763329E+03</rscale>
<asrwt>0</asrwt>
<pdfrwt beam="1">  1        1 0.10222579E+00 0.13763329E+03</pdfrwt>
<pdfrwt beam="2">  1       -1 0.28953865E-02 0.13763329E+03</pdfrwt>
<totfact> 0.11555488E+04</totfact>
</mgrwt>
</event>
<event>
 6      1 +1.8175624e-03 2.30641500e+02 7.81860800e-03 1.12618900e-01
        2 -1    0    0  501    0 +0.0000000000e+00 +0.0000000000e+00 +8.2691356593e+01 8.2691356633e+01 2.5500000000e-03 0.0000e+00 -1.0000e+00
       -2 -1    0    0    0  501 -0.0000000000e+00 -0.0000000000e+00 -1.6082540806e+02 1.6082540808e+02 2.5500000000e-03 0.0000e+00 1.0000e+00
      -13  1    1    2    0    0 -4.0929058139e+01 -2.6088686326e+01 -5.0098951475e+01 6.9754737884e+01 1.0566000000e-01 0.0000e+00 1.0000e+00
       13  1    1    2    0    0 +5.9357300627e+01 -1.9605695158e+01 +2.4446555441e+01 6.7121663100e+01 1.0566000000e-01 0.0000e+00 -1.0000e+00
      -13  1    1    2    0    0 -2.7010885057e+01 +3.2340955972e+01 -7.0806544571e+01 8.2396014848e+01 1.0566000000e-01 0.0000e+00 1.0000e+00
       13  1    1    2    0    0 +8.5826425692e+00 +1.3353425512e+01 +1.8324889142e+01 2.4244348877e+01 1.0566000000e-01 0.0000e+00 -1.0000e+00
<mgrwt>
<rscale>  0 0.23064146E+03</rscale>
<asrwt>0</asrwt>
<pdfrwt beam="1">  1        2 0.20672839E-01 0.23064146E+03</pdfrwt>
<pdfrwt beam="2">  1       -2 0.40206352E-01 0.23064146E+03</pdfrwt>
<totfact> 0.15666848E+03</totfact>
</mgrwt>
</event>
<event>
 6      1 +1.8175624e-03 1.69725400e+02 7.81860800e-03 1.17813500e-01
        2 -1    0    0  501    0 +0.0000000000e+00 +0.0000000000e+00 +2.1388009118e+02 2.1388009120e+02 2.5500000000e-03 0.0000e+00 -1.0000e+00
       -2 -1    0    0    0  501 -0.0000000000e+00 -0.0000000000e+00 -3.3671566193e+01 3.3671566290e+01 2.5500000000e-03 0.0000e+00 1.0000e+00
      -13  1    1    2    0    0 -4.8948403675e+01 +2.4525424865e+01 +4.7303861614e+01 7.2354054308e+01 1.0566000000e-01 0.0000e+00 1.0000e+00
       13  1    1    2    0    0 +4.8280759253e+01 -2.2013152143e+00 +8.8632994381e+01 1.0095393187e+02 1.0566000000e-01 0.0000e+00 -1.0000e+00
      -13  1    1    2    0    0 -5.9988364472e+00 +1.4786678344e+01 -1.7490276520e-01 1.5958497742e+01 1.0566000000e-01 0.0000e+00 1.0000e+00
       13  1    1    2    0    0 +6.6664808689e+00 -3.7110787995e+01 +4.4446571759e+01 5.8285173569e+01 1.0566000000e-01 0.0000e+00 -1.0000e+00
<mgrwt>
<rscale>  0 0.16972540E+03</rscale>
<asrwt>0</asrwt>
<pdfrwt beam="1">  1        2 0.53470021E-01 0.16972540E+03</pdfrwt>
<pdfrwt beam="2">  1       -2 0.84178918E-02 0.16972540E+03</pdfrwt>
<totfact> 0.78498611E+03</totfact>
</mgrwt>
</event>
<event>
 6      1 +1.8175624e-03 4.84272700e+02 7.81860800e-03 1.01796700e-01
        2 -1    0    0  501    0 +0.0000000000e+00 +0.0000000000e+00 +2.6879656083e+02 2.6879656084e+02 2.5500000000e-03 0.0000e+00 1.0000e+00
       -2 -1    0    0    0  501 -0.0000000000e+00 -0.0000000000e+00 -2.1812041357e+02 2.1812041359e+02 2.5500000000e-03 0.0000e+00 -1.0000e+00
      -13  1    1    2    0    0 +6.5913591236e+01 -1.0096456709e+02 +2.5827567016e+01 1.2331066337e+02 1.0566000000e-01 0.0000e+00 -1.0000e+00
       13  1    1    2    0    0 -4.0457870825e+00 +2.8018328588e+01 +1.7399306188e+01 3.3228634486e+01 1.0566000000e-01 0.0000e+00 1.0000e+00
      -13  1    1    2    0    0 -1.6607493682e+02 +2.2504050988e+01 +8.8045480761e+01 1.8931279618e+02 1.0566000000e-01 0.0000e+00 1.0000e+00
       13  1    1    2    0    0 +1.0420713267e+02 +5.0442187519e+01 -8.0596206708e+01 1.4106488039e+02 1.0566000000e-01 0.0000e+00 -1.0000e+00
<mgrwt>
<rscale>  0 0.48427272E+03</rscale>
<asrwt>0</asrwt>
<pdfrwt beam="1">  1        2 0.67199140E-01 0.48427272E+03</pdfrwt>
<pdfrwt beam="2">  1       -2 0.54530104E-01 0.48427272E+03</pdfrwt>
<totfact> 0.23230766E+02</totfact>
</mgrwt>
</event>
<event>
 6      1 +1.8175624e-03 2.04333700e+02 7.81860800e-03 1.14613300e-01
       -2 -1    0    0    0  501 -0.0000000000e+00 +0.0000000000e+00 +1.7327984528e+02 1.7327984529e+02 2.5500000000e-03 0.0000e+00 1.0000e+00
        2 -1    0    0  501    0 +0.0000000000e+00 -0.0000000000e+00 -6.0238185657e+01 6.0238185710e+01 2.5500000000e-03 0.0000e+00 -1.0000e+00
      -13  1    1    2    0    0 +8.7282556354e-01 +4.1505371912e+01 +5.8919898587e+00 4.1930709874e+01 1.0566000000e-01 0.0000e+00 -1.0000e+00
       13  1    1    2    0    0 -2.3971134142e+00 -5.6874855786e+01 +2.6865010863e+01 6.2946289375e+01 1.0566000000e-01 0.0000e+00 1.0000e+00
      -13  1    1    2    0    0 -2.1665815038e+01 +4.5762571972e+01 +7.4350127255e+01 8.9953171827e+01 1.0566000000e-01 0.0000e+00 1.0000e+00
       13  1    1    2    0    0 +2.3190102889e+01 -3.0393088098e+01 +5.9345316431e+00 3.8687859930e+01 1.0566000000e-01 0.0000e+00 -1.0000e+00
<mgrwt>
<rscale>  0 0.20433368E+03</rscale>
<asrwt>0</asrwt>
<pdfrwt beam="1">  1        2 0.15059547E-01 0.20433368E+03</pdfrwt>
<pdfrwt beam="2">  1       -2 0.43319961E-01 0.20433368E+03</pdfrwt>
<totfact> 0.19536024E+03</totfact>
</mgrwt>
</event>
<event>
 6      1 +1.8175624e-03 2.86226800e+02 7.81860800e-03 1.09233600e-01
       -1 -1    0    0    0  501 -0.0000000000e+00 +0.0000000000e+00 +1.3516345130e+02 1.3516345139e+02 5.0400000000e-03 0.0000e+00 1.0000e+00
        1 -1    0    0  501    0 +0.0000000000e+00 -0.0000000000e+00 -1.5153096789e+02 1.5153096798e+02 5.0400000000e-03 0.0000e+00 -1.0000e+00
      -13  1    1    2    0    0 +9.0128097323e+00 +7.7129361781e+00 -2.4628098255e+01 2.7336322201e+01 1.0566000000e-01 0.0000e+00 -1.0000e+00
       13  1    1    2    0    0 +8.7541947845e+00 -5.0958328141e+01 -1.9758661154e+01 5.5351630400e+01 1.0566000000e-01 0.0000e+00 1.0000e+00
      -13  1    1    2    0    0 +5.9583157614e+01 +8.7311938008e+01 -1.2036254472e+01 1.0638801519e+02 1.0566000000e-01 0.0000e+00 -1.0000e+00
       13  1    1    2    0    0 -7.7350162131e+01 -4.4066546044e+01 +4.0055497288e+01 9.7618451581e+01 1.0566000000e-01 0.0000e+00 1.0000e+00
<mgrwt>
<rscale>  0 0.28622682E+03</rscale>
<asrwt>0</asrwt>
<pdfrwt beam="1">  1        1 0.37882742E-01 0.28622682E+03</pdfrwt>
<pdfrwt beam="2">  1       -1 0.33790863E-01 0.28622682E+03</pdfrwt>
<totfact> 0.93800548E+02</totfact>
</mgrwt>
</event>
<event>
 6      1 +1.8175624e-03 3.18665600e+02 7.81860800e-03 1.07626500e-01
        1 -1    0    0  501    0 +0.0000000000e+00 +0.0000000000e+00 +2.1068595828e+02 2.1068595834e+02 5.0400000000e-03 0.0000e+00 -1.0000e+00
       -1 -1    0    0    0  501 -0.0000000000e+00 -0.0000000000e+00 -1.2049656419e+02 1.2049656429e+02 5.0400000000e-03 0.0000e+00 1.0000e+00
      -13  1    1    2    0    0 +3.3491632584e+01 +2.6181621317e+01 +5.3505075993e+00 4.2846304900e+01 1.0566000000e-01 0.0000e+00 -1.0000e+00
       13  1    1    2    0    0 -3.3157124836e+01 -3.8017686640e+01 -5.9029748360e+00 5.0789720424e+01 1.0566000000e-01 0.0000e+00 1.0000e+00
      -13  1    1    2    0    0 +3.4274190159e+01 +1.1011911313e+02 +4.6988919523e+01 1.2453476988e+02 1.0566000000e-01 0.0000e+00 1.0000e+00
       13  1    1    2    0    0 -3.4608697907e+01 -9.8283047804e+01 +4.3752941806e+01 1.1301172743e+02 1.0566000000e-01 0.0000e+00 -1.0000e+00
<mgrwt>
<rscale>  0 0.31866556E+03</rscale>
<asrwt>0</asrwt>
<pdfrwt beam="1">  1        1 0.52671489E-01 0.31866556E+03</pdfrwt>
<pdfrwt beam="2">  1       -1 0.30124141E-01 0.31866556E+03</pdfrwt>
<totfact> 0.75318711E+02</totfact>
</mgrwt>
</event>
<event>
 7      1 +1.8175624e-03 9.37239100e+01 7.81860800e-03 1.29407600e-01
        1 -1    0    0  501    0 +0.0000000000e+00 +0.0000000000e+00 +1.2356230131e+02 1.2356230141e+02 5.0400000000e-03 0.0000e+00 -1.0000e+00
       -1 -1    0    0    0  501 -0.0000000000e+00 -0.0000000000e+00 -1.7772756550e+01 1.7772757265e+01 5.0400000000e-03 0.0000e+00 1.0000e+00
       23  2    1    2    0    0 +0.0000000000e+00 -3.5527136788e-15 +1.0578954476e+02 1.4133505868e+02 9.3723908534e+01 0.0000e+00 0.0000e+00
      -13  1    3    3    0    0 -2.9842484667e+01 -2.2771747979e+01 +3.8649828513e+01 5.3879001524e+01 1.0566000000e-01 0.0000e+00 -1.0000e+00
       13  1    3    3    0    0 +6.4740831575e+00 +2.3323347611e+01 +1.9450487243e+01 3.1051971186e+01 1.0566000000e-01 0.0000e+00 1.0000e+00
      -13  1    3    3    0    0 +1.2690010698e+01 -5.1295485896e+00 +9.9648287845e+00 1.6930966216e+01 1.0566000000e-01 0.0000e+00 -1.0000e+00
       13  1    3    3    0    0 +1.0678390811e+01 +4.5779489581e+00 +3.7724400218e+01 3.9473119750e+01 1.0566000000e-01 0.0000e+00 1.0000e+00
<mgrwt>
<rscale>  0 0.93723909E+02</rscale>
<asrwt>0</asrwt>
<pdfrwt beam="1">  1        1 0.30890575E-01 0.93723909E+02</pdfrwt>
<pdfrwt beam="2">  1       -1 0.44431893E-02 0.93723909E+02</pdfrwt>
<totfact> 0.27206480E+04</totfact>
</mgrwt>
</event>
<event>
 6      1 +1.8175624e-03 1.46237600e+02 7.81860800e-03 1.20517400e-01
        1 -1    0    0  501    0 +0.0000000000e+00 +0.0000000000e+00 +1.4077745520e+02 1.4077745529e+02 5.0400000000e-03 0.0000e+00 -1.0000e+00
       -1 -1    0    0    0  501 -0.0000000000e+00 -0.0000000000e+00 -3.7977354813e+01 3.7977355147e+01 5.0400000000e-03 0.0000e+00 1.0000e+00
      -13  1    1    2    0    0 -1.6396309382e+01 +1.1123365120e+01 +2.6624836486e+01 3.3188270441e+01 1.0566000000e-01 0.0000e+00 -1.0000e+00
       13  1    1    2    0    0 -1.5340125275e+01 +3.6065496235e+01 +5.4893719780e+01 6.7449025919e+01 1.0566000000e-01 0.0000e+00 1.0000e+00
      -13  1    1    2    0    0 +4.4395861738e+01 -3.7603527266e+01 +2.2051117343e+01 6.2219617022e+01 1.0566000000e-01 0.0000e+00 -1.0000e+00
       13  1    1    2    0    0 -1.2659427082e+01 -9.5853340891e+00 -7.6957322525e-01 1.5897897050e+01 1.0566000000e-01 0.0000e+00 1.0000e+00
<mgrwt>
<rscale>  0 0.14623755E+03</rscale>
<asrwt>0</asrwt>
<pdfrwt beam="1">  1        1 0.35194363E-01 0.14623755E+03</pdfrwt>
<pdfrwt beam="2">  1       -1 0.94943389E-02 0.14623755E+03</pdfrwt>
<totfact> 0.77865630E+03</totfact>
</mgrwt>
</event>
<event>
 6      1 +1.8175624e-03 2.51948100e+02 7.81860800e-03 1.11208000e-01
        2 -1    0    0  501    0 +0.0000000000e+00 +0.0000000000e+00 +5.3180146373e+02 5.3180146373e+02 2.5500000000e-03 0.0000e+00 -1.0000e+00
       -2 -1    0    0    0  501 -0.0000000000e+00 -0.0000000000e+00 -2.9840948463e+01 2.9840948572e+01 2.5500000000e-03 0.0000e+00 1.0000e+00
      -13  1    1    2    0    0 +8.9794882771e+01 -4.5198354736e+01 +1.6917994957e+02 1.9679400078e+02 1.0566000000e-01 0.0000e+00 1.0000e+00
       13  1    1    2    0    0 -9.7918545567e+00 -2.9154751514e+01 +7.7236010650e+01 8.3134183443e+01 1.0566000000e-01 0.0000e+00 -1.0000e+00
      -13  1    1    2    0    0 -5.4464190147e+01 +5.4272921807e+01 +1.2147027771e+02 1.4375999993e+02 1.0566000000e-01 0.0000e+00 1.0000e+00
       13  1    1    2    0    0 -2.5538838067e+01 +2.0080184443e+01 +1.3407427733e+02 1.3795422815e+02 1.0566000000e-01 0.0000e+00 -1.0000e+00
<mgrwt>
<rscale>  0 0.25194809E+03</rscale>
<asrwt>0</asrwt>
<pdfrwt beam="1">  1        2 0.13295036E+00 0.25194809E+03</pdfrwt>
<pdfrwt beam="2">  1       -2 0.74602376E-02 0.25194809E+03</pdfrwt>
<totfact> 0.33711782E+03</totfact>
</mgrwt>
</event>
<event>
 6      1 +1.8175624e-03 1.90557300e+02 7.81860800e-03 1.15796000e-01
       -2 -1    0    0    0  501 -0.0000000000e+00 +0.0000000000e+00 +4.8943761676e+01 4.8943761743e+01 2.5500000000e-03 0.0000e+00 -1.0000e+00
        2 -1    0    0  501    0 +0.0000000000e+00 -0.0000000000e+00 -1.8547865620e+02 1.8547865622e+02 2.5500000000e-03 0.0000e+00 1.0000e+00
      -13  1    1    2    0    0 +5.5581959303e+00 -2.2396238078e+01 -7.4880267130e+01 7.8355284389e+01 1.0566000000e-01 0.0000e+00 1.0000e+00
       13  1    1    2    0    0 +1.9783132335e+01 +1.4815886876e+00 -3.9484552408e+01 4.4188329601e+01 1.0566000000e-01 0.0000e+00 1.0000e+00
      -13  1    1    2    0    0 -1.4389098509e+01 -4.1387152753e+01 +2.7183645926e+00 4.3901517502e+01 1.0566000000e-01 0.0000e+00 -1.0000e+00
       13  1    1    2    0    0 -1.0952229757e+01 +6.2301802144e+01 -2.4888439578e+01 6.7977286469e+01 1.0566000000e-01 0.0000e+00 -1.0000e+00
<mgrwt>
<rscale>  0 0.19055732E+03</rscale>
<asrwt>0</asrwt>
<pdfrwt beam="1">  1        2 0.46369662E-01 0.19055732E+03</pdfrwt>
<pdfrwt beam="2">  1       -2 0.12235941E-01 0.19055732E+03</pdfrwt>
<totfact> 0.50884483E+03</totfact>
</mgrwt>
</event>
<event>
 6      1 +1.8175624e-03 4.40285800e+02 7.81860800e-03 1.03065900e-01
       -2 -1    0    0    0  501 -0.0000000000e+00 +0.0000000000e+00 +7.8273222872e+01 7.8273222913e+01 2.5500000000e-03 0.0000e+00 -1.0000e+00
        2 -1    0    0  501    0 +0.0000000000e+00 -0.0000000000e+00 -6.1915041801e+02 6.1915041801e+02 2.5500000000e-03 0.0000e+00 1.0000e+00
      -13  1    1    2    0    0 +4.9652767434e+01 -1.6539188110e+01 -5.3204069659e+01 7.4629928645e+01 1.0566000000e-01 0.0000e+00 -1.0000e+00
       13  1    1    2    0    0 +8.5258806445e+01 +7.1263603559e+01 -1.5496739062e+02 1.9068945590e+02 1.0566000000e-01 0.0000e+00 1.0000e+00
      -13  1    1    2    0    0 -1.3375046404e+02 +3.5495310702e+01 -7.1513318796e+01 1.5576671545e+02 1.0566000000e-01 0.0000e+00 -1.0000e+00
       13  1    1    2    0    0 -1.1611098435e+00 -9.0219726152e+01 -2.6119241606e+02 2.7633754094e+02 1.0566000000e-01 0.0000e+00 1.0000e+00
<mgrwt>
<rscale>  0 0.44028581E+03</rscale>
<asrwt>0</asrwt>
<pdfrwt beam="1">  1        2 0.15478759E+00 0.44028581E+03</pdfrwt>
<pdfrwt beam="2">  1       -2 0.19568308E-01 0.44028581E+03</pdfrwt>
<totfact> 0.56430062E+02</totfact>
</mgrwt>
</event>
<event>
 6      1 +1.8175624e-03 3.70809300e+02 7.81860800e-03 1.05438400e-01
        2 -1    0    0  501    0 +0.0000000000e+00 +0.0000000000e+00 +5.5025303956e+01 5.5025304015e+01 2.5500000000e-03 0.0000e+00 -1.0000e+00
       -2 -1    0    0    0  501 -0.0000000000e+00 -0.0000000000e+00 -6.2471043391e+02 6.2471043392e+02 2.5500000000e-03 0.0000e+00 1.0000e+00
      -13  1    1    2    0    0 +3.2288285912e+01 +5.5541460005e+01 -3.9658837931e+01 7.5499813090e+01 1.0566000000e-01 0.0000e+00 1.0000e+00
       13  1    1    2    0    0 -2.8112058686e+01 +8.6622308922e+01 -2.0225974744e+02 2.2181688134e+02 1.0566000000e-01 0.0000e+00 -1.0000e+00
      -13  1    1    2    0    0 +2.6370858636e+01 -1.4472412301e+02 -3.1778162445e+02 3.5017947679e+02 1.0566000000e-01 0.0000e+00 1.0000e+00
       13  1    1    2    0    0 -3.0547085862e+01 +2.5603540812e+00 -9.9849201354e+00 3.2239566713e+01 1.0566000000e-01 0.0000e+00 -1.0000e+00
<mgrwt>
<rscale>  0 0.37080929E+03</rscale>
<asrwt>0</asrwt>
<pdfrwt beam="1">  1        2 0.13756328E-01 0.37080929E+03</pdfrwt>
<pdfrwt beam="2">  1       -2 0.15617759E+00 0.37080929E+03</pdfrwt>
<totfact> 0.12313177E+02</totfact>
</mgrwt>
</event>
<event>
 6      1 +1.8175624e-03 2.70902400e+02 7.81860800e-03 1.10076400e-01
       -2 -1    0    0    0  501 -0.0000000000e+00 +0.0000000000e+00 +1.1774932770e+02 1.1774932773e+02 2.5500000000e-03 0.0000e+00 1.0000e+00
        2 -1    0    0  501    0 +0.0000000000e+00 -0.0000000000e+00 -1.5581427934e+02 1.5581427936e+02 2.5500000000e-03 0.0000e+00 -1.0000e+00
      -13  1    1    2    0    0 +3.6486044770e+01 +4.0683423935e+00 +1.9575576472e+01 4.1605254849e+01 1.0566000000e-01 0.0000e+00 1.0000e+00
       13  1    1    2    0    0 -7.7452803153e+01 -6.7162494977e+01 -2.6493771906e+01 1.0588516686e+02 1.0566000000e-01 0.0000e+00 -1.0000e+00
      -13  1    1    2    0    0 +1.7185958453e+01 +8.0030107117e+01 -4.5380905548e+01 9.3592804027e+01 1.0566000000e-01 0.0000e+00 -1.0000e+00
       13  1    1    2    0    0 +2.3780799930e+01 -1.6935954534e+01 +1.4234149345e+01 3.2480381354e+01 1.0566000000e-01 0.0000e+00 1.0000e+00
<mgrwt>
<rscale>  0 0.27090239E+03</rscale>
<asrwt>0</asrwt>
<pdfrwt beam="1">  1        2 0.38953570E-01 0.27090239E+03</pdfrwt>
<pdfrwt beam="2">  1       -2 0.29437332E-01 0.27090239E+03</pdfrwt>
<totfact> 0.13916402E+03</totfact>
</mgrwt>
</event>
<event>
 6      1 +1.8175624e-03 2.68369900e+02 7.81860800e-03 1.10221600e-01
       -2 -1    0    0    0  501 -0.0000000000e+00 +0.0000000000e+00 +2.0384426625e+01 2.0384426785e+01 2.5500000000e-03 0.0000e+00 1.0000e+00
        2 -1    0    0  501    0 +0.0000000000e+00 -0.0000000000e+00 -8.8330177734e+02 8.8330177734e+02 2.5500000000e-03 0.0000e+00 -1.0000e+00
      -13  1    1    2    0    0 +6.0572341603e+01 -1.0963554299e+01 -1.2441426605e+02 1.3880968572e+02 1.0566000000e-01 0.0000e+00 1.0000e+00
       13  1    1    2    0    0 -4.1759276492e+01 +9.6107985798e+01 -4.1908805703e+02 4.3199003787e+02 1.0566000000e-01 0.0000e+00 -1.0000e+00
      -13  1    1    2    0    0 -4.5875885782e+00 -3.8238171061e+01 -8.3788156284e+01 9.2215345755e+01 1.0566000000e-01 0.0000e+00 1.0000e+00
       13  1    1    2    0    0 -1.4225476533e+01 -4.6906260438e+01 -2.3562687135e+02 2.4067113478e+02 1.0566000000e-01 0.0000e+00 -1.0000e+00
<mgrwt>
<rscale>  0 0.26836990E+03</rscale>
<asrwt>0</asrwt>
<pdfrwt beam="1">  1        2 0.22082532E+00 0.26836990E+03</pdfrwt>
<pdfrwt beam="2">  1       -2 0.50961096E-02 0.26836990E+03</pdfrwt>
<totfact> 0.28112476E+03</totfact>
</mgrwt>
</event>
<event>
 6      1 +1.8175624e-03 3.08912600e+02 7.81860800e-03 1.08086800e-01
        2 -1    0    0  501    0 +0.0000000000e+00 +0.0000000000e+00 +1.0017052440e+02 1.0017052443e+02 2.5500000000e-03 0.0000e+00 -1.0000e+00
       -2 -1    0    0    0  501 -0.0000000000e+00 -0.0000000000e+00 -2.3816141814e+02 2.3816141815e+02 2.5500000000e-03 0.0000e+00 1.0000e+00
      -13  1    1    2    0    0 -4.0715994889e+01 +6.6949933112e+00 +2.4271816042e+01 4.7872198542e+01 1.0566000000e-01 0.0000e+00 1.0000e+00
       13  1    1    2    0    0 +9.1371382334e+01 +7.6723281198e+01 -1.0260946312e+02 1.5736551234e+02 1.0566000000e-01 0.0000e+00 1.0000e+00
      -13  1    1    2    0    0 +7.6221014925e+00 -1.5991713599e+01 +9.6725416220e+00 2.0184166083e+01 1.0566000000e-01 0.0000e+00 -1.0000e+00
       13  1    1    2    0    0 -5.8277488938e+01 -6.7426560910e+01 -6.9325788288e+01 1.1291006562e+02 1.0566000000e-01 0.0000e+00 -1.0000e+00
<mgrwt>
<rscale>  0 0.30891264E+03</rscale>
<asrwt>0</asrwt>
<pdfrwt beam="1">  1        2 0.25042632E-01 0.30891264E+03</pdfrwt>
<pdfrwt beam="2">  1       -2 0.59540353E-01 0.30891264E+03</pdfrwt>
<totfact> 0.57886145E+02</totfact>
</mgrwt>
</event>
<event>
 6      1 +1.8175624e-03 4.11229700e+02 7.81860800e-03 1.03995900e-01
        2 -1    0    0  501    0 +0.0000000000e+00 +0.0000000000e+00 +4.3680261030e+02 4.3680261031e+02 2.5500000000e-03 0.0000e+00 -1.0000e+00
       -2 -1    0    0    0  501 -0.0000000000e+00 -0.0000000000e+00 -9.6788512551e+01 9.6788512585e+01 2.5500000000e-03 0.0000e+00 1.0000e+00
      -13  1    1    2    0    0 +1.2861542484e+01 +1.2684677996e+02 +1.3667037919e+02 1.8690727266e+02 1.0566000000e-01 0.0000e+00 1.0000e+00
       13  1    1    2    0    0 -9.4591562622e+01 -7.1473070331e+01 +1.6272765629e+02 2.0133619841e+02 1.0566000000e-01 0.0000e+00 -1.0000e+00
      -13  1    1    2    0    0 +2.7825227030e+01 -7.3532175921e+01 +6.1996445743e+00 7.8864890235e+01 1.0566000000e-01 0.0000e+00 -1.0000e+00
       13  1    1    2    0    0 +5.3904793108e+01 +1.8158466290e+01 +3.4416417693e+01 6.6482761591e+01 1.0566000000e-01 0.0000e+00 1.0000e+00
<mgrwt>
<rscale>  0 0.41122974E+03</rscale>
<asrwt>0</asrwt>
<pdfrwt beam="1">  1        2 0.10920065E+00 0.41122974E+03</pdfrwt>
<pdfrwt beam="2">  1       -2 0.24197128E-01 0.41122974E+03</pdfrwt>
<totfact> 0.62050449E+02</totfact>
</mgrwt>
</event>
<event>
 6      1 +1.8175624e-03 4.03392800e+02 7.81860800e-03 1.04261100e-01
       -2 -1    0    0    0  501 -0.0000000000e+00 +0.0000000000e+00 +1.2532722562e+02 1.2532722564e+02 2.5500000000e-03 0.0000e+00 1.0000e+00
        2 -1    0    0  501    0 +0.0000000000e+00 -0.0000000000e+00 -3.2460180299e+02 3.2460180300e+02 2.5500000000e-03 0.0000e+00 -1.0000e+00
      -13  1    1    2    0    0 -9.6603177025e+00 -5.2366498653e+01 -3.8392578841e+01 6.5647339576e+01 1.0566000000e-01 0.0000e+00 -1.0000e+00
       13  1    1    2    0    0 -4.1467950097e+01 -6.8758048423e+01 +6.9656079039e+01 1.0629788624e+02 1.0566000000e-01 0.0000e+00 1.0000e+00
      -13  1    1    2    0    0 +5.1622547883e+01 +3.1377592840e+01 -5.9300289664e+01 8.4652089759e+01 1.0566000000e-01 0.0000e+00 1.0000e+00
       13  1    1    2    0    0 -4.9428008276e-01 +8.9746954236e+01 -1.7123778791e+02 1.9333171307e+02 1.0566000000e-01 0.0000e+00 -1.0000e+00
<mgrwt>
<rscale>  0 0.40339283E+03</rscale>
<asrwt>0</asrwt>
<pdfrwt beam="1">  1        2 0.81150449E-01 0.40339283E+03</pdfrwt>
<pdfrwt beam="2">  1       -2 0.31331807E-01 0.40339283E+03</pdfrwt>
<totfact> 0.55364068E+02</totfact>
</mgrwt>
</event>
<event>
 6      1 +1.8175624e-03 1.49919900e+03 7.81860800e-03 8.88498600e-02
       -2 -1    0    0    0  501 -0.0000000000e+00 +0.0000000000e+00 +1.0982912670e+03 1.0982912670e+03 2.5500000000e-03 0.0000e+00 1.0000e+00
        2 -1    0    0  501    0 +0.0000000000e+00 -0.0000000000e+00 -5.1161262829e+02 5.1161262830e+02 2.5500000000e-03 0.0000e+00 -1.0000e+00
      -13  1    1    2    0    0 +2.7262764323e+02 -5.7811551480e+02 +6.0883920643e+02 8.8273924279e+02 1.0566000000e-01 0.0000e+00 1.0000e+00
       13  1    1    2    0    0 -1.5906070709e+02 +4.2733920828e+02 +1.2572974949e+02 4.7299797943e+02 1.0566000000e-01 0.0000e+00 -1.0000e+00
      -13  1    1    2    0    0 -6.5111947110e+01 +6.1227719192e+01 -2.1612124831e+01 9.1953762063e+01 1.0566000000e-01 0.0000e+00 1.0000e+00
       13  1    1    2    0    0 -4.8454989026e+01 +8.9548587327e+01 -1.2627819240e+02 1.6221291099e+02 1.0566000000e-01 0.0000e+00 -1.0000e+00
<mgrwt>
<rscale>  0 0.14991994E+04</rscale>
<asrwt>0</asrwt>
<pdfrwt beam="1">  1        2 0.12790316E+00 0.14991994E+04</pdfrwt>
<pdfrwt beam="2">  1       -2 0.27457281E+00 0.14991994E+04</pdfrwt>
<totfact> 0.14141708E+00</totfact>
</mgrwt>
</event>
<event>
 6      1 +1.8175624e-03 1.88791600e+02 7.81860800e-03 1.15955600e-01
       -2 -1    0    0    0  501 -0.0000000000e+00 +0.0000000000e+00 +1.5905232783e+01 1.5905232987e+01 2.5500000000e-03 0.0000e+00 1.0000e+00
        2 -1    0    0  501    0 +0.0000000000e+00 -0.0000000000e+00 -5.6022872539e+02 5.6022872540e+02 2.5500000000e-03 0.0000e+00 -1.0000e+00
      -13  1    1    2    0    0 +2.7810992322e+01 +9.3229637735e+00 -2.5995268922e+01 3.9193546890e+01 1.0566000000e-01 0.0000e+00 1.0000e+00
       13  1    1    2    0    0 +1.7445424446e+01 +1.5312017265e+01 -7.9802898173e+01 8.3110254648e+01 1.0566000000e-01 0.0000e+00 -1.0000e+00
      -13  1    1    2    0    0 -1.2603659032e+01 +4.0538566072e+01 -1.2771227683e+02 1.3458329903e+02 1.0566000000e-01 0.0000e+00 1.0000e+00
       13  1    1    2    0    0 -3.2652757736e+01 -6.5173547111e+01 -3.1081304868e+02 3.1924685782e+02 1.0566000000e-01 0.0000e+00 -1.0000e+00
<mgrwt>
<rscale>  0 0.18879161E+03</rscale>
<asrwt>0</asrwt>
<pdfrwt beam="1">  1        2 0.14005712E+00 0.18879161E+03</pdfrwt>
<pdfrwt beam="2">  1       -2 0.39763101E-02 0.18879161E+03</pdfrwt>
<totfact> 0.81446313E+03</totfact>
</mgrwt>
</event>
<event>
 6      1 +1.8175624e-03 1.91717700e+02 7.81860800e-03 1.15692100e-01
       -2 -1    0    0    0  501 -0.0000000000e+00 +0.0000000000e+00 +5.0731236381e+01 5.0731236445e+01 2.5500000000e-03 0.0000e+00 1.0000e+00
        2 -1    0    0  501    0 +0.0000000000e+00 -0.0000000000e+00 -1.8112936519e+02 1.8112936520e+02 2.5500000000e-03 0.0000e+00 -1.0000e+00
      -13  1    1    2    0    0 -3.9581516301e+01 +2.7517444831e+01 -1.1892540447e+01 4.9652289826e+01 1.0566000000e-01 0.0000e+00 1.0000e+00
       13  1    1    2    0    0 -1.3037285941e+01 -2.0327057043e-01 -3.5060101164e+01 3.7406336379e+01 1.0566000000e-01 0.0000e+00 -1.0000e+00
      -13  1    1    2    0    0 +5.0372508572e+01 -6.3830618652e+01 -5.1643927760e+01 9.6326756075e+01 1.0566000000e-01 0.0000e+00 1.0000e+00
       13  1    1    2    0    0 +2.2462936698e+00 +3.6516444392e+01 -3.1801559434e+01 4.8475219368e+01 1.0566000000e-01 0.0000e+00 -1.0000e+00
<mgrwt>
<rscale>  0 0.19171767E+03</rscale>
<asrwt>0</asrwt>
<pdfrwt beam="1">  1        2 0.45282340E-01 0.19171767E+03</pdfrwt>
<pdfrwt beam="2">  1       -2 0.12682810E-01 0.19171767E+03</pdfrwt>
<totfact> 0.49271779E+03</totfact>
</mgrwt>
</event>
<event>
 6      1 +1.8175624e-03 2.65935800e+02 7.81860800e-03 1.10362800e-01
       -2 -1    0    0    0  501 -0.0000000000e+00 +0.0000000000e+00 +7.0675724187e+01 7.0675724233e+01 2.5500000000e-03 0.0000e+00 1.0000e+00
        2 -1    0    0  501    0 +0.0000000000e+00 -0.0000000000e+00 -2.5016316264e+02 2.5016316266e+02 2.5500000000e-03 0.0000e+00 -1.0000e+00
      -13  1    1    2    0    0 +4.4031909505e+00 -1.3400342344e+01 +1.2064647371e+01 1.8561361634e+01 1.0566000000e-01 0.0000e+00 1.0000e+00
       13  1    1    2    0    0 +4.0852695968e+01 -2.2355459553e+00 -1.9171111324e+02 1.9602832076e+02 1.0566000000e-01 0.0000e+00 -1.0000e+00
      -13  1    1    2    0    0 -5.0512341526e+01 +4.6012963564e+01 +1.7961886533e+01 7.0649345321e+01 1.0566000000e-01 0.0000e+00 1.0000e+00
       13  1    1    2    0    0 +5.2564546077e+00 -3.0377075264e+01 -1.7802859117e+01 3.5599859177e+01 1.0566000000e-01 0.0000e+00 -1.0000e+00
<mgrwt>
<rscale>  0 0.26593580E+03</rscale>
<asrwt>0</asrwt>
<pdfrwt beam="1">  1        2 0.62540789E-01 0.26593580E+03</pdfrwt>
<pdfrwt beam="2">  1       -2 0.17668932E-01 0.26593580E+03</pdfrwt>
<totfact> 0.20328888E+03</totfact>
</mgrwt>
</event>
<event>
 6      1 +1.8175624e-03 6.90177000e+02 7.81860800e-03 9.73418000e-02
        2 -1    0    0  501    0 +0.0000000000e+00 +0.0000000000e+00 +4.4134168662e+02 4.4134168663e+02 2.5500000000e-03 0.0000e+00 -1.0000e+00
       -2 -1    0    0    0  501 -0.0000000000e+00 -0.0000000000e+00 -2.6982736171e+02 2.6982736172e+02 2.5500000000e-03 0.0000e+00 1.0000e+00
      -13  1    1    2    0    0 +1.4311744490e+01 +1.0255579586e+02 +4.1519854625e+00 1.0363284924e+02 1.0566000000e-01 0.0000e+00 1.0000e+00
       13  1    1    2    0    0 +9.0333204224e+00 +5.2832649450e+00 -1.9333262341e+01 2.1984084314e+01 1.0566000000e-01 0.0000e+00 -1.0000e+00
      -13  1    1    2    0    0 -2.6948400611e+01 +1.8462715586e+02 -6.7121187778e+01 1.9828935420e+02 1.0566000000e-01 0.0000e+00 1.0000e+00
       13  1    1    2    0    0 +3.6033356983e+00 -2.9246621666e+02 +2.5381678956e+02 3.8726276060e+02 1.0566000000e-01 0.0000e+00 -1.0000e+00
<mgrwt>
<rscale>  0 0.69017697E+03</rscale>
<asrwt>0</asrwt>
<pdfrwt beam="1">  1        2 0.11033542E+00 0.69017697E+03</pdfrwt>
<pdfrwt beam="2">  1       -2 0.67456841E-01 0.69017697E+03</pdfrwt>
<totfact> 0.81375215E+01</totfact>
</mgrwt>
</event>
<event>
 6      1 +1.8175624e-03 6.96729200e+02 7.81860800e-03 9.72284200e-02
       -2 -1    0    0    0  501 -0.0000000000e+00 +0.0000000000e+00 +1.6601392724e+02 1.6601392726e+02 2.5500000000e-03 0.0000e+00 -1.0000e+00
        2 -1    0    0  501    0 +0.0000000000e+00 -0.0000000000e+00 -7.3101030762e+02 7.3101030762e+02 2.5500000000e-03 0.0000e+00 1.0000e+00
      -13  1    1    2    0    0 +9.3760820934e+01 +6.0785156699e+01 +5.6391415738e+01 1.2516361193e+02 1.0566000000e-01 0.0000e+00 -1.0000e+00
       13  1    1    2    0    0 -1.1799879141e+02 -1.1524112354e+02 -6.3560483943e+02 6.5665649651e+02 1.0566000000e-01 0.0000e+00 1.0000e+00
      -13  1    1    2    0    0 +3.4272875981e+00 +2.3808613016e+01 +5.5046926349e+01 6.0073052349e+01 1.0566000000e-01 0.0000e+00 1.0000e+00
       13  1    1    2    0    0 +2.0810682875e+01 +3.0647353827e+01 -4.0829883036e+01 5.5131074097e+01 1.0566000000e-01 0.0000e+00 -1.0000e+00
<mgrwt>
<rscale>  0 0.69672919E+03</rscale>
<asrwt>0</asrwt>
<pdfrwt beam="1">  1        2 0.18275257E+00 0.69672919E+03</pdfrwt>
<pdfrwt beam="2">  1       -2 0.41503484E-01 0.69672919E+03</pdfrwt>
<totfact> 0.10795511E+02</totfact>
</mgrwt>
</event>
<event>
 6      1 +1.8175624e-03 1.45480300e+02 7.81860800e-03 1.20613900e-01
       -3 -1    0    0    0  501 -0.0000000000e+00 +0.0000000000e+00 +2.5676425954e+01 2.5676624599e+01 1.0100000000e-01 0.0000e+00 1.0000e+00
        3 -1    0    0  501    0 +0.0000000000e+00 -0.0000000000e+00 -2.0606848875e+02 2.0606851351e+02 1.0100000000e-01 0.0000e+00 -1.0000e+00
      -13  1    1    2    0    0 -3.6925101948e+01 +2.2585186680e+01 -9.8622706445e+01 1.0770331101e+02 1.0566000000e-01 0.0000e+00 -1.0000e+00
       13  1    1    2    0    0 +5.5231490581e+01 -2.1594109119e+01 -3.9487991681e+01 7.1247005211e+01 1.0566000000e-01 0.0000e+00 1.0000e+00
      -13  1    1    2    0    0 -1.1622518628e+01 -1.1097142593e+01 -1.1634018782e+01 1.9839129770e+01 1.0566000000e-01 0.0000e+00 1.0000e+00
       13  1    1    2    0    0 -6.6838700050e+00 +1.0106065031e+01 -3.0647345892e+01 3.2955692117e+01 1.0566000000e-01 0.0000e+00 -1.0000e+00
<mgrwt>
<rscale>  0 0.14548028E+03</rscale>
<asrwt>0</asrwt>
<pdfrwt beam="1">  1        3 0.51517145E-01 0.14548028E+03</pdfrwt>
<pdfrwt beam="2">  1       -3 0.64191350E-02 0.14548028E+03</pdfrwt>
<totfact> 0.13370546E+03</totfact>
</mgrwt>
</event>
<event>
 6      1 +1.8175624e-03 2.84941100e+02 7.81860800e-03 1.09302000e-01
        1 -1    0    0  501    0 +0.0000000000e+00 +0.0000000000e+00 +6.3279859553e+02 6.3279859555e+02 5.0400000000e-03 0.0000e+00 -1.0000e+00
       -1 -1    0    0    0  501 -0.0000000000e+00 -0.0000000000e+00 -3.2076339971e+01 3.2076340367e+01 5.0400000000e-03 0.0000e+00 1.0000e+00
      -13  1    1    2    0    0 +3.7346259365e+01 -1.2177781215e+01 +2.5925262824e+01 4.7065612292e+01 1.0566000000e-01 0.0000e+00 1.0000e+00
       13  1    1    2    0    0 -5.1733586945e+00 +4.1840314680e+01 +1.7988650884e+02 1.8476077181e+02 1.0566000000e-01 0.0000e+00 -1.0000e+00
      -13  1    1    2    0    0 -2.8065085165e+01 +5.2196735711e+01 +4.7069509298e+01 7.5681557157e+01 1.0566000000e-01 0.0000e+00 1.0000e+00
       13  1    1    2    0    0 -4.1078155049e+00 -8.1859269176e+01 +3.4784097459e+02 3.5736699466e+02 1.0566000000e-01 0.0000e+00 -1.0000e+00
<mgrwt>
<rscale>  0 0.28494114E+03</rscale>
<asrwt>0</asrwt>
<pdfrwt beam="1">  1        1 0.15819965E+00 0.28494114E+03</pdfrwt>
<pdfrwt beam="2">  1       -1 0.80190851E-02 0.28494114E+03</pdfrwt>
<totfact> 0.13069898E+03</totfact>
</mgrwt>
</event>
<event>
 7      1 +1.8175624e-03 9.16918700e+01 7.81860800e-03 1.29880600e-01
        2 -1    0    0  501    0 +0.0000000000e+00 +0.0000000000e+00 +1.0234743449e+02 1.0234743452e+02 2.5500000000e-03 0.0000e+00 -1.0000e+00
       -2 -1    0    0    0  501 -0.0000000000e+00 -0.0000000000e+00 -2.0536419261e+01 2.0536419420e+01 2.5500000000e-03 0.0000e+00 1.0000e+00
       23  2    1    2    0    0 +0.0000000000e+00 -3.9968028887e-15 +8.1811015231e+01 1.2288385394e+02 9.1691871761e+01 0.0000e+00 0.0000e+00
      -13  1    3    3    0    0 +2.3658422470e+01 +6.6746702977e-01 -1.1653972203e+00 2.3696746206e+01 1.0566000000e-01 0.0000e+00 -1.0000e+00
       13  1    3    3    0    0 -1.6426673349e+01 +3.5644420487e+00 +2.4972564994e+01 3.0102840577e+01 1.0566000000e-01 0.0000e+00 1.0000e+00
      -13  1    3    3    0    0 -6.5739160558e+00 +1.2788152366e+01 +4.6134716446e+01 4.8323663342e+01 1.0566000000e-01 0.0000e+00 -1.0000e+00
       13  1    3    3    0    0 -6.5783306564e-01 -1.7020061444e+01 +1.1869131012e+01 2.0760603818e+01 1.0566000000e-01 0.0000e+00 1.0000e+00
<mgrwt>
<rscale>  0 0.91691872E+02</rscale>
<asrwt>0</asrwt>
<pdfrwt beam="1">  1        2 0.25586858E-01 0.91691872E+02</pdfrwt>
<pdfrwt beam="2">  1       -2 0.51341049E-02 0.91691872E+02</pdfrwt>
<totfact> 0.34612010E+04</totfact>
</mgrwt>
</event>
<event>
 6      1 +1.8175624e-03 2.68387100e+02 7.81860800e-03 1.10220600e-01
       -2 -1    0    0    0  501 -0.0000000000e+00 +0.0000000000e+00 +1.2086055910e+02 1.2086055913e+02 2.5500000000e-03 0.0000e+00 -1.0000e+00
        2 -1    0    0  501    0 +0.0000000000e+00 -0.0000000000e+00 -1.4899737377e+02 1.4899737379e+02 2.5500000000e-03 0.0000e+00 1.0000e+00
      -13  1    1    2    0    0 +5.4367694310e+01 -1.7356291283e+00 +1.4475037265e+01 5.6288510914e+01 1.0566000000e-01 0.0000e+00 -1.0000e+00
       13  1    1    2    0    0 -5.6732827979e+00 -7.0678666067e+01 -8.4992012017e+01 1.1068565058e+02 1.0566000000e-01 0.0000e+00 1.0000e+00
      -13  1    1    2    0    0 -1.8947562887e+01 +2.6722736410e+01 +3.4875758509e+01 4.7848139736e+01 1.0566000000e-01 0.0000e+00 -1.0000e+00
       13  1    1    2    0    0 -2.9746848625e+01 +4.5691558786e+01 +7.5044015758e+00 5.5035631680e+01 1.0566000000e-01 0.0000e+00 1.0000e+00
<mgrwt>
<rscale>  0 0.26838708E+03</rscale>
<asrwt>0</asrwt>
<pdfrwt beam="1">  1        2 0.37249343E-01 0.26838708E+03</pdfrwt>
<pdfrwt beam="2">  1       -2 0.30215140E-01 0.26838708E+03</pdfrwt>
<totfact> 0.13930239E+03</totfact>
</mgrwt>
</event>
<event>
 6      1 +1.8175624e-03 5.72063800e+02 7.81860800e-03 9.96512200e-02
       -2 -1    0    0    0  501 -0.0000000000e+00 +0.0000000000e+00 +2.0349653477e+02 2.0349653479e+02 2.5500000000e-03 0.0000e+00 1.0000e+00
        2 -1    0    0  501    0 +0.0000000000e+00 -0.0000000000e+00 -4.0204248125e+02 4.0204248125e+02 2.5500000000e-03 0.0000e+00 -1.0000e+00
      -13  1    1    2    0    0 -4.2772875093e+01 +1.0579419547e+02 -6.7832135316e+01 1.3275217657e+02 1.0566000000e-01 0.0000e+00 1.0000e+00
       13  1    1    2    0    0 -7.1563407357e+01 +2.1828886786e+01 -2.1929924961e+02 2.3171101315e+02 1.0566000000e-01 0.0000e+00 -1.0000e+00
      -13  1    1    2    0    0 +2.6593383190e+00 -1.1103075189e+02 +4.9558298845e+01 1.2161799247e+02 1.0566000000e-01 0.0000e+00 -1.0000e+00
       13  1    1    2    0    0 +1.1167694413e+02 -1.6592330372e+01 +3.9027139606e+01 1.1945783385e+02 1.0566000000e-01 0.0000e+00 1.0000e+00
<mgrwt>
<rscale>  0 0.57206381E+03</rscale>
<asrwt>0</asrwt>
<pdfrwt beam="1">  1        2 0.10051062E+00 0.57206381E+03</pdfrwt>
<pdfrwt beam="2">  1       -2 0.50874134E-01 0.57206381E+03</pdfrwt>
<totfact> 0.16652030E+02</totfact>
</mgrwt>
</event>
<event>
 6      1 +1.8175624e-03 2.46035900e+02 7.81860800e-03 1.11583600e-01
        2 -1    0    0  501    0 +0.0000000000e+00 +0.0000000000e+00 +5.2416885158e+02 5.2416885158e+02 2.5500000000e-03 0.0000e+00 1.0000e+00
       -2 -1    0    0    0  501 -0.0000000000e+00 -0.0000000000e+00 -2.8871249877e+01 2.8871249989e+01 2.5500000000e-03 0.0000e+00 -1.0000e+00
      -13  1    1    2    0    0 +5.6870361689e+01 -2.7971135566e+01 +2.4403252023e+02 2.5212795275e+02 1.0566000000e-01 0.0000e+00 1.0000e+00
       13  1    1    2    0    0 -6.8316554993e+01 -2.0064129221e+01 +1.3980623809e+02 1.5689332791e+02 1.0566000000e-01 0.0000e+00 1.0000e+00
      -13  1    1    2    0    0 +3.3183939596e+01 +6.5559660299e+00 +8.1976443111e+01 8.8680905086e+01 1.0566000000e-01 0.0000e+00 -1.0000e+00
       13  1    1    2    0    0 -2.1737746291e+01 +4.1479298757e+01 +2.9482400267e+01 5.5337915833e+01 1.0566000000e-01 0.0000e+00 -1.0000e+00
<mgrwt>
<rscale>  0 0.24603585E+03</rscale>
<asrwt>0</asrwt>
<pdfrwt beam="1">  1        2 0.13104221E+00 0.24603585E+03</pdfrwt>
<pdfrwt beam="2">  1       -2 0.72178126E-02 0.24603585E+03</pdfrwt>
<totfact> 0.36152230E+03</totfact>
</mgrwt>
</event>
<event>
 6      1 +1.8175624e-03 7.71835600e+02 7.81860800e-03 9.60170300e-02
       -2 -1    0    0    0  501 -0.0000000000e+00 +0.0000000000e+00 +2.4792289972e+02 2.4792289973e+02 2.5500000000e-03 0.0000e+00 1.0000e+00
        2 -1    0    0  501    0 +0.0000000000e+00 -0.0000000000e+00 -6.0072129043e+02 6.0072129044e+02 2.5500000000e-03 0.0000e+00 -1.0000e+00
      -13  1    1    2    0    0 +1.6800669772e+02 -6.2004018869e+01 -9.9075795797e+01 2.0466258405e+02 1.0566000000e-01 0.0000e+00 -1.0000e+00
       13  1    1    2    0    0 -8.9893698646e+01 -1.6058936945e+02 -1.2321289652e+02 2.2147517167e+02 1.0566000000e-01 0.0000e+00 -1.0000e+00
      -13  1    1    2    0    0 -1.3960379724e+02 +2.4142909967e+02 -2.1012713265e+00 2.7889363004e+02 1.0566000000e-01 0.0000e+00 1.0000e+00
       13  1    1    2    0    0 +6.1490798168e+01 -1.8835711349e+01 -1.2840842708e+02 1.4361280441e+02 1.0566000000e-01 0.0000e+00 1.0000e+00
<mgrwt>
<rscale>  0 0.77183564E+03</rscale>
<asrwt>0</asrwt>
<pdfrwt beam="1">  1        2 0.15018032E+00 0.77183564E+03</pdfrwt>
<pdfrwt beam="2">  1       -2 0.61980726E-01 0.77183564E+03</pdfrwt>
<totfact> 0.63906393E+01</totfact>
</mgrwt>
</event>
<event>
 6      1 +1.8175624e-03 2.10849800e+02 7.81860800e-03 1.14089500e-01
        2 -1    0    0  501    0 +0.0000000000e+00 +0.0000000000e+00 +7.7407705247e+01 7.7407705289e+01 2.5500000000e-03 0.0000e+00 -1.0000e+00
       -2 -1    0    0    0  501 -0.0000000000e+00 -0.0000000000e+00 -1.4358278851e+02 1.4358278853e+02 2.5500000000e-03 0.0000e+00 1.0000e+00
      -13  1    1    2    0    0 +5.8772194352e+01 +1.9624724885e+01 +8.7199951868e+00 6.2572758736e+01 1.0566000000e-01 0.0000e+00 1.0000e+00
       13  1    1    2    0    0 -4.3542578865e+01 -3.3504379419e+01 -1.3551132573e+01 5.6587489540e+01 1.0566000000e-01 0.0000e+00 -1.0000e+00
      -13  1    1    2    0    0 +5.2247273464e+00 +1.2595791851e+01 -7.5628740600e+01 7.6848352728e+01 1.0566000000e-01 0.0000e+00 1.0000e+00
       13  1    1    2    0    0 -2.0454342833e+01 +1.2838626824e+00 +1.4284794726e+01 2.4981892813e+01 1.0566000000e-01 0.0000e+00 -1.0000e+00
<mgrwt>
<rscale>  0 0.21084984E+03</rscale>
<asrwt>0</asrwt>
<pdfrwt beam="1">  1        2 0.19351926E-01 0.21084984E+03</pdfrwt>
<pdfrwt beam="2">  1       -2 0.35895697E-01 0.21084984E+03</pdfrwt>
<totfact> 0.20878902E+03</totfact>
</mgrwt>
</event>
<event>
 6      1 +1.8175624e-03 1.37579100e+02 7.81860800e-03 1.21662400e-01
       -1 -1    0    0    0  501 -0.0000000000e+00 +0.0000000000e+00 +5.3682523667e+01 5.3682523904e+01 5.0400000000e-03 0.0000e+00 1.0000e+00
        1 -1    0    0  501    0 +0.0000000000e+00 -0.0000000000e+00 -8.8147889775e+01 8.8147889919e+01 5.0400000000e-03 0.0000e+00 -1.0000e+00
      -13  1    1    2    0    0 -1.5131703624e+01 +3.0182511487e+01 -5.4443575485e+01 6.4062988768e+01 1.0566000000e-01 0.0000e+00 -1.0000e+00
       13  1    1    2    0    0 +2.0931444189e+01 +5.0836581150e-01 +1.2198558604e+01 2.4232205588e+01 1.0566000000e-01 0.0000e+00 1.0000e+00
      -13  1    1    2    0    0 +1.1666922462e+01 -6.7957862136e+00 +1.7750622007e+01 2.2302366145e+01 1.0566000000e-01 0.0000e+00 1.0000e+00
       13  1    1    2    0    0 -1.7466663027e+01 -2.3895091084e+01 -9.9709712334e+00 3.1232853322e+01 1.0566000000e-01 0.0000e+00 -1.0000e+00
<mgrwt>
<rscale>  0 0.13757909E+03</rscale>
<asrwt>0</asrwt>
<pdfrwt beam="1">  1        1 0.22036972E-01 0.13757909E+03</pdfrwt>
<pdfrwt beam="2">  1       -1 0.13420631E-01 0.13757909E+03</pdfrwt>
<totfact> 0.81735084E+03</totfact>
</mgrwt>
</event>
<event>
 6      1 +1.8175624e-03 2.42421000e+02 7.81860800e-03 1.11819000e-01
        2 -1    0    0  501    0 +0.0000000000e+00 +0.0000000000e+00 +4.8955901661e+01 4.8955901727e+01 2.5500000000e-03 0.0000e+00 -1.0000e+00
       -2 -1    0    0    0  501 -0.0000000000e+00 -0.0000000000e+00 -3.0010655128e+02 3.0010655129e+02 2.5500000000e-03 0.0000e+00 1.0000e+00
      -13  1    1    2    0    0 -1.8519498924e+01 -2.5210529462e+01 -9.0978692240e+00 3.2577983741e+01 1.0566000000e-01 0.0000e+00 -1.0000e+00
       13  1    1    2    0    0 +6.0753073904e+00 -2.5097983528e+01 -2.1173623504e+00 2.5909699427e+01 1.0566000000e-01 0.0000e+00 -1.0000e+00
      -13  1    1    2    0    0 -2.5169966356e+01 +7.6714379472e+01 -4.9570879836e+01 9.4741260895e+01 1.0566000000e-01 0.0000e+00 1.0000e+00
       13  1    1    2    0    0 +3.7614157890e+01 -2.6405866482e+01 -1.9036453821e+02 1.9583350896e+02 1.0566000000e-01 0.0000e+00 1.0000e+00
<mgrwt>
<rscale>  0 0.24242101E+03</rscale>
<asrwt>0</asrwt>
<pdfrwt beam="1">  1        2 0.12238976E-01 0.24242101E+03</pdfrwt>
<pdfrwt beam="2">  1       -2 0.75026633E-01 0.24242101E+03</pdfrwt>
<totfact> 0.81601834E+02</totfact>
</mgrwt>
</event>
<event>
 6      1 +1.8175624e-03 9.64562400e+02 7.81860800e-03 9.34828900e-02
       -3 -1    0    0    0  501 -0.0000000000e+00 +0.0000000000e+00 +4.7419609823e+02 4.7419610898e+02 1.0100000000e-01 0.0000e+00 1.0000e+00
        3 -1    0    0  501    0 +0.0000000000e+00 -0.0000000000e+00 -4.9050414203e+02 4.9050415243e+02 1.0100000000e-01 0.0000e+00 -1.0000e+00
      -13  1    1    2    0    0 -2.3195356920e+02 +2.1486944029e+02 +2.7617282046e+01 3.1738629471e+02 1.0566000000e-01 0.0000e+00 1.0000e+00
       13  1    1    2    0    0 +3.2063622780e+02 -3.3685087089e+02 -2.9496138953e+01 4.6598941316e+02 1.0566000000e-01 0.0000e+00 -1.0000e+00
      -13  1    1    2    0    0 -9.0543074176e+01 +7.6160193536e+01 -4.4587400099e+01 1.2643761613e+02 1.0566000000e-01 0.0000e+00 -1.0000e+00
       13  1    1    2    0    0 +1.8604155744e+00 +4.5821237062e+01 +3.0158213199e+01 5.4886937421e+01 1.0566000000e-01 0.0000e+00 1.0000e+00
<mgrwt>
<rscale>  0 0.96456241E+03</rscale>
<asrwt>0</asrwt>
<pdfrwt beam="1">  1        3 0.12262604E+00 0.96456241E+03</pdfrwt>
<pdfrwt beam="2">  1       -3 0.11854903E+00 0.96456241E+03</pdfrwt>
<totfact> 0.80343001E-01</totfact>
</mgrwt>
</event>
<event>
 6      1 +1.8175624e-03 3.08272600e+02 7.81860800e-03 1.08117700e-01
       -2 -1    0    0    0  501 -0.0000000000e+00 +0.0000000000e+00 +5.9627816564e+01 5.9627816618e+01 2.5500000000e-03 0.0000e+00 1.0000e+00
        2 -1    0    0  501    0 +0.0000000000e+00 -0.0000000000e+00 -3.9843814912e+02 3.9843814913e+02 2.5500000000e-03 0.0000e+00 -1.0000e+00
      -13  1    1    2    0    0 -1.6800942913e+00 -9.4510133163e+01 -8.6681828461e+01 1.2825263559e+02 1.0566000000e-01 0.0000e+00 1.0000e+00
       13  1    1    2    0    0 -1.8460027928e+01 +6.2455782362e+01 -5.1688384402e+01 8.3145641063e+01 1.0566000000e-01 0.0000e+00 1.0000e+00
      -13  1    1    2    0    0 +1.0429976199e+01 -3.0283381271e+01 +4.4017393924e+00 3.2330389086e+01 1.0566000000e-01 0.0000e+00 -1.0000e+00
       13  1    1    2    0    0 +9.7101460203e+00 +6.2337732072e+01 -2.0484185909e+02 2.1433730001e+02 1.0566000000e-01 0.0000e+00 -1.0000e+00
<mgrwt>
<rscale>  0 0.30827259E+03</rscale>
<asrwt>0</asrwt>
<pdfrwt beam="1">  1        2 0.99609529E-01 0.30827259E+03</pdfrwt>
<pdfrwt beam="2">  1       -2 0.14906955E-01 0.30827259E+03</pdfrwt>
<totfact> 0.15958531E+03</totfact>
</mgrwt>
</event>
<event>
 6      1 +1.8175624e-03 1.99232200e+02 7.81860800e-03 1.15038800e-01
       -1 -1    0    0    0  501 -0.0000000000e+00 +0.0000000000e+00 +8.1244994236e+01 8.1244994393e+01 5.0400000000e-03 0.0000e+00 1.0000e+00
        1 -1    0    0  501    0 +0.0000000000e+00 -0.0000000000e+00 -1.2214122004e+02 1.2214122014e+02 5.0400000000e-03 0.0000e+00 -1.0000e+00
      -13  1    1    2    0    0 -1.3308301858e+01 +3.0926422005e+01 -1.3163375447e+01 3.6150243340e+01 1.0566000000e-01 0.0000e+00 -1.0000e+00
       13  1    1    2    0    0 +2.9763621832e+01 +1.4704547629e+01 -5.4660430188e+01 6.3952096900e+01 1.0566000000e-01 0.0000e+00 -1.0000e+00
      -13  1    1    2    0    0 -1.3963661550e+01 +1.6827868806e+01 -1.6308887982e+01 2.7279149615e+01 1.0566000000e-01 0.0000e+00 1.0000e+00
       13  1    1    2    0    0 -2.4916584236e+00 -6.2458838440e+01 +4.3236467813e+01 7.6004724682e+01 1.0566000000e-01 0.0000e+00 1.0000e+00
<mgrwt>
<rscale>  0 0.19923215E+03</rscale>
<asrwt>0</asrwt>
<pdfrwt beam="1">  1        1 0.30535305E-01 0.19923215E+03</pdfrwt>
<pdfrwt beam="2">  1       -1 0.20311249E-01 0.19923215E+03</pdfrwt>
<totfact> 0.28658584E+03</totfact>
</mgrwt>
</event>
<event>
 6      1 +1.8175624e-03 2.15210700e+03 7.81860800e-03 8.53863100e-02
       -2 -1    0    0    0  501 -0.0000000000e+00 +0.0000000000e+00 +6.4963243208e+02 6.4963243208e+02 2.5500000000e-03 0.0000e+00 1.0000e+00
        2 -1    0    0  501    0 +0.0000000000e+00 -0.0000000000e+00 -1.7823791581e+03 1.7823791581e+03 2.5500000000e-03 0.0000e+00 -1.0000e+00
      -13  1    1    2    0    0 +1.3893118922e+01 -2.3726010598e+02 -3.2668272767e+02 4.0398885178e+02 1.0566000000e-01 0.0000e+00 -1.0000e+00
       13  1    1    2    0    0 -4.0189866110e+02 -3.9128009633e+02 -9.1745129957e+02 1.0753322955e+03 1.0566000000e-01 0.0000e+00 -1.0000e+00
      -13  1    1    2    0    0 +3.5937923710e+02 +6.6649319399e+02 +2.5690526950e+02 7.9960424108e+02 1.0566000000e-01 0.0000e+00 1.0000e+00
       13  1    1    2    0    0 +2.8626305077e+01 -3.7952991676e+01 -1.4551796823e+02 1.5308620173e+02 1.0566000000e-01 0.0000e+00 1.0000e+00
<mgrwt>
<rscale>  0 0.21521072E+04</rscale>
<asrwt>0</asrwt>
<pdfrwt beam="1">  1        2 0.44559478E+00 0.21521072E+04</pdfrwt>
<pdfrwt beam="2">  1       -2 0.16240811E+00 0.21521072E+04</pdfrwt>
<totfact> 0.43438019E-01</totfact>
</mgrwt>
</event>
<event>
 6      1 +1.8175624e-03 3.82675700e+02 7.81860800e-03 1.04994900e-01
        1 -1    0    0  501    0 +0.0000000000e+00 +0.0000000000e+00 +2.6759027799e+02 2.6759027804e+02 5.0400000000e-03 0.0000e+00 -1.0000e+00
       -1 -1    0    0    0  501 -0.0000000000e+00 -0.0000000000e+00 -1.3681427076e+02 1.3681427086e+02 5.0400000000e-03 0.0000e+00 1.0000e+00
      -13  1    1    2    0    0 -4.4063997278e+01 +8.8458678790e+01 +1.0718221856e+00 9.8831845456e+01 1.0566000000e-01 0.0000e+00 -1.0000e+00
       13  1    1    2    0    0 +1.5149140389e+01 -1.6144352175e+02 +1.1103340662e+02 1.9652464406e+02 1.0566000000e-01 0.0000e+00 -1.0000e+00
      -13  1    1    2    0    0 +1.1811161705e+01 +4.6168622787e+01 -2.5941145914e+01 5.4258635131e+01 1.0566000000e-01 0.0000e+00 1.0000e+00
       13  1    1    2    0    0 +1.7103695184e+01 +2.6816220176e+01 +4.4611924329e+01 5.4789424252e+01 1.0566000000e-01 0.0000e+00 1.0000e+00
<mgrwt>
<rscale>  0 0.38267568E+03</rscale>
<asrwt>0</asrwt>
<pdfrwt beam="1">  1        1 0.66897569E-01 0.38267568E+03</pdfrwt>
<pdfrwt beam="2">  1       -1 0.34203568E-01 0.38267568E+03</pdfrwt>
<totfact> 0.44268573E+02</totfact>
</mgrwt>
</event>
<event>
 6      1 +1.8175624e-03 4.60639300e+02 7.81860800e-03 1.02459600e-01
        2 -1    0    0  501    0 +0.0000000000e+00 +0.0000000000e+00 +4.8365576845e+02 4.8365576846e+02 2.5500000000e-03 0.0000e+00 -1.0000e+00
       -2 -1    0    0    0  501 -0.0000000000e+00 -0.0000000000e+00 -1.0967952003e+02 1.0967952006e+02 2.5500000000e-03 0.0000e+00 1.0000e+00
      -13  1    1    2    0    0 -6.0549039850e+00 -1.9099695292e+02 +6.9783772621e+01 2.0343619140e+02 1.0566000000e-01 0.0000e+00 1.0000e+00
       13  1    1    2    0    0 -5.7207071719e+01 +1.4965049883e+02 +1.9673613627e+02 2.5371842529e+02 1.0566000000e-01 0.0000e+00 -1.0000e+00
      -13  1    1    2    0    0 +4.3952169776e+01 +4.5297832236e+01 +8.9504467491e+01 1.0952053551e+02 1.0566000000e-01 0.0000e+00 1.0000e+00
       13  1    1    2    0    0 +1.9309805928e+01 -3.9513781401e+00 +1.7951872047e+01 2.6660136312e+01 1.0566000000e-01 0.0000e+00 -1.0000e+00
<mgrwt>
<rscale>  0 0.46063926E+03</rscale>
<asrwt>0</asrwt>
<pdfrwt beam="1">  1        2 0.12091394E+00 0.46063926E+03</pdfrwt>
<pdfrwt beam="2">  1       -2 0.27419880E-01 0.46063926E+03</pdfrwt>
<totfact> 0.43468196E+02</totfact>
</mgrwt>
</event>
<event>
 6      1 +1.8175624e-03 3.25792300e+02 7.81860800e-03 1.07301400e-01
        4 -1    0    0  501    0 +0.0000000000e+00 +0.0000000000e+00 +1.8986471321e+02 1.8986896066e+02 1.2700000000e+00 0.0000e+00 -1.0000e+00
       -4 -1    0    0    0  501 -0.0000000000e+00 -0.0000000000e+00 -1.3974954027e+02 1.3975531083e+02 1.2700000000e+00 0.0000e+00 1.0000e+00
      -13  1    1    2    0    0 +7.2374349944e+01 +2.6096769143e+01 -1.9599723656e+01 7.9392998564e+01 1.0566000000e-01 0.0000e+00 1.0000e+00
       13  1    1    2    0    0 +4.3836749534e+01 -1.5264209907e+01 -4.6279890105e+01 6.5547662857e+01 1.0566000000e-01 0.0000e+00 -1.0000e+00
      -13  1    1    2    0    0 -6.1005121074e+01 +5.5367607157e+00 +1.1113295093e+02 1.2689690486e+02 1.0566000000e-01 0.0000e+00 -1.0000e+00
       13  1    1    2    0    0 -5.5205978404e+01 -1.6369319952e+01 +4.8618357723e+00 5.7786705204e+01 1.0566000000e-01 0.0000e+00 1.0000e+00
<mgrwt>
<rscale>  0 0.32579231E+03</rscale>
<asrwt>0</asrwt>
<pdfrwt beam="1">  1        4 0.47467430E-01 0.32579231E+03</pdfrwt>
<pdfrwt beam="2">  1       -4 0.34938638E-01 0.32579231E+03</pdfrwt>
<totfact> 0.64203579E+01</totfact>
</mgrwt>
</event>
<event>
 6      1 +1.8175624e-03 4.49718900e+02 7.81860800e-03 1.02780600e-01
       -2 -1    0    0    0  501 -0.0000000000e+00 +0.0000000000e+00 +2.4269434827e+02 2.4269434829e+02 2.5500000000e-03 0.0000e+00 -1.0000e+00
        2 -1    0    0  501    0 +0.0000000000e+00 -0.0000000000e+00 -2.0833517102e+02 2.0833517104e+02 2.5500000000e-03 0.0000e+00 1.0000e+00
      -13  1    1    2    0    0 +2.6597611333e+00 +4.5451126532e+01 +1.2731618654e+01 4.7275622787e+01 1.0566000000e-01 0.0000e+00 -1.0000e+00
       13  1    1    2    0    0 +7.4569344165e+01 +1.0290304990e+02 -2.0728390081e+01 1.2876063874e+02 1.0566000000e-01 0.0000e+00 1.0000e+00
      -13  1    1    2    0    0 -1.2722147104e+02 -1.0517622930e+02 +9.5063641980e+01 1.9048477392e+02 1.0566000000e-01 0.0000e+00 -1.0000e+00
       13  1    1    2    0    0 +4.9992365742e+01 -4.3177947129e+01 -5.2707693304e+01 8.4508483883e+01 1.0566000000e-01 0.0000e+00 1.0000e+00
<mgrwt>
<rscale>  0 0.44971888E+03</rscale>
<asrwt>0</asrwt>
<pdfrwt beam="1">  1        2 0.52083793E-01 0.44971888E+03</pdfrwt>
<pdfrwt beam="2">  1       -2 0.60673587E-01 0.44971888E+03</pdfrwt>
<totfact> 0.24727102E+02</totfact>
</mgrwt>
</event>
<event>
 6      1 +1.8175624e-03 4.89999500e+02 7.81860800e-03 1.01642300e-01
       -2 -1    0    0    0  501 -0.0000000000e+00 +0.0000000000e+00 +9.2430624654e+01 9.2430624689e+01 2.5500000000e-03 0.0000e+00 1.0000e+00
        2 -1    0    0  501    0 +0.0000000000e+00 -0.0000000000e+00 -6.4940460833e+02 6.4940460833e+02 2.5500000000e-03 0.0000e+00 -1.0000e+00
      -13  1    1    2    0    0 -8.0146298743e+00 -1.9877561986e+01 -3.0486443858e+01 3.7266421691e+01 1.0566000000e-01 0.0000e+00 1.0000e+00
       13  1    1    2    0    0 +7.1367898965e+01 -9.6237172103e+01 -3.2685756373e+02 3.4812475986e+02 1.0566000000e-01 0.0000e+00 -1.0000e+00
      -13  1    1    2    0    0 +1.6088548974e+01 +6.5875439041e+01 +5.3532580182e+01 8.6395388661e+01 1.0566000000e-01 0.0000e+00 1.0000e+00
       13  1    1    2    0    0 -7.9441818065e+01 +5.0239295048e+01 -2.5316255627e+02 2.7004866281e+02 1.0566000000e-01 0.0000e+00 -1.0000e+00
<mgrwt>
<rscale>  0 0.48999948E+03</rscale>
<asrwt>0</asrwt>
<pdfrwt beam="1">  1        2 0.16235114E+00 0.48999948E+03</pdfrwt>
<pdfrwt beam="2">  1       -2 0.23107658E-01 0.48999948E+03</pdfrwt>
<totfact> 0.39211075E+02</totfact>
</mgrwt>
</event>
<event>
 6      1 +1.8175624e-03 2.87074000e+02 7.81860800e-03 1.09188700e-01
        1 -1    0    0  501    0 +0.0000000000e+00 +0.0000000000e+00 +4.1701263775e+02 4.1701263778e+02 5.0400000000e-03 0.0000e+00 -1.0000e+00
       -1 -1    0    0    0  501 -0.0000000000e+00 -0.0000000000e+00 -4.9405856569e+01 4.9405856826e+01 5.0400000000e-03 0.0000e+00 1.0000e+00
      -13  1    1    2    0    0 +6.1718880410e+01 +8.2902935387e+01 +5.0932073270e+01 1.1522241165e+02 1.0566000000e-01 0.0000e+00 1.0000e+00
       13  1    1    2    0    0 +1.0427924834e+01 -6.7065164259e+00 +1.2619645618e+01 1.7691398997e+01 1.0566000000e-01 0.0000e+00 -1.0000e+00
      -13  1    1    2    0    0 -6.9562495375e+01 -9.2062343860e+01 +2.9014135856e+02 3.1224419135e+02 1.0566000000e-01 0.0000e+00 -1.0000e+00
       13  1    1    2    0    0 -2.5843098684e+00 +1.5865924899e+01 +1.3913703728e+01 2.1260492606e+01 1.0566000000e-01 0.0000e+00 1.0000e+00
<mgrwt>
<rscale>  0 0.28707397E+03</rscale>
<asrwt>0</asrwt>
<pdfrwt beam="1">  1        1 0.10425316E+00 0.28707397E+03</pdfrwt>
<pdfrwt beam="2">  1       -1 0.12351464E-01 0.28707397E+03</pdfrwt>
<totfact> 0.12948791E+03</totfact>
</mgrwt>
</event>
<event>
 6      1 +1.8175624e-03 3.34740000e+02 7.81860800e-03 1.06905900e-01
        2 -1    0    0  501    0 +0.0000000000e+00 +0.0000000000e+00 +1.6798754999e+02 1.6798755001e+02 2.5500000000e-03 0.0000e+00 1.0000e+00
       -2 -1    0    0    0  501 -0.0000000000e+00 -0.0000000000e+00 -1.6675472427e+02 1.6675472429e+02 2.5500000000e-03 0.0000e+00 -1.0000e+00
      -13  1    1    2    0    0 +4.0744643856e+01 -2.0213420739e+01 -3.4290683235e+01 5.6961131499e+01 1.0566000000e-01 0.0000e+00 -1.0000e+00
       13  1    1    2    0    0 -2.4409756674e+01 +4.4490299004e+01 -1.4985238928e+01 5.2913055819e+01 1.0566000000e-01 0.0000e+00 -1.0000e+00
      -13  1    1    2    0    0 -4.6456891800e+01 -4.1853851135e+01 -7.3238107439e+01 9.6300670796e+01 1.0566000000e-01 0.0000e+00 1.0000e+00
       13  1    1    2    0    0 +3.0122004618e+01 +1.7576972869e+01 +1.2374685532e+02 1.2856741618e+02 1.0566000000e-01 0.0000e+00 1.0000e+00
<mgrwt>
<rscale>  0 0.33474000E+03</rscale>
<asrwt>0</asrwt>
<pdfrwt beam="1">  1        2 0.41996888E-01 0.33474000E+03</pdfrwt>
<pdfrwt beam="2">  1       -2 0.41688681E-01 0.33474000E+03</pdfrwt>
<totfact> 0.66897823E+02</totfact>
</mgrwt>
</event>
<event>
 7      1 +1.8175624e-03 9.10754200e+01 7.81860800e-03 1.30026800e-01
        1 -1    0    0  501    0 +0.0000000000e+00 +0.0000000000e+00 +2.2341950103e+01 2.2341950671e+01 5.0400000000e-03 0.0000e+00 -1.0000e+00
       -1 -1    0    0    0  501 -0.0000000000e+00 -0.0000000000e+00 -9.2815663962e+01 9.2815664099e+01 5.0400000000e-03 0.0000e+00 1.0000e+00
       23  2    1    2    0    0 +0.0000000000e+00 +0.0000000000e+00 -7.0473713859e+01 1.1515761477e+02 9.1075418717e+01 0.0000e+00 0.0000e+00
      -13  1    3    3    0    0 -1.7301188192e+01 -1.3345811322e+01 -5.2414762414e+01 5.6786972763e+01 1.0566000000e-01 0.0000e+00 1.0000e+00
       13  1    3    3    0    0 +1.1559157083e+01 +1.6883639730e+01 -1.5846360608e+01 2.5880295817e+01 1.0566000000e-01 0.0000e+00 -1.0000e+00
      -13  1    3    3    0    0 -1.1857730800e+01 -7.8685621219e+00 -1.9421902650e+00 1.4363262744e+01 1.0566000000e-01 0.0000e+00 1.0000e+00
       13  1    3    3    0    0 +1.7599761909e+01 +4.3307337136e+00 -2.7040057179e-01 1.8127083446e+01 1.0566000000e-01 0.0000e+00 -1.0000e+00
<mgrwt>
<rscale>  0 0.91075419E+02</rscale>
<asrwt>0</asrwt>
<pdfrwt beam="1">  1        1 0.55854878E-02 0.91075419E+02</pdfrwt>
<pdfrwt beam="2">  1       -1 0.23203915E-01 0.91075419E+02</pdfrwt>
<totfact> 0.19924834E+04</totfact>
</mgrwt>
</event>
<event>
 6      1 +1.8175624e-03 9.00299700e+02 7.81860800e-03 9.42520700e-02
       -2 -1    0    0    0  501 -0.0000000000e+00 +0.0000000000e+00 +2.4661386376e+02 2.4661386377e+02 2.5500000000e-03 0.0000e+00 1.0000e+00
        2 -1    0    0  501    0 +0.0000000000e+00 -0.0000000000e+00 -8.2166862699e+02 8.2166862699e+02 2.5500000000e-03 0.0000e+00 -1.0000e+00
      -13  1    1    2    0    0 -2.0129971845e+02 -1.5985698054e+02 -2.1942583840e+02 3.3796973326e+02 1.0566000000e-01 0.0000e+00 1.0000e+00
       13  1    1    2    0    0 +2.9512550365e+02 +3.0815745471e+02 -2.9809741720e+02 5.2050183583e+02 1.0566000000e-01 0.0000e+00 -1.0000e+00
      -13  1    1    2    0    0 +5.4254252957e+00 -5.2966184595e+01 -4.8289949830e+01 7.1880333672e+01 1.0566000000e-01 0.0000e+00 1.0000e+00
       13  1    1    2    0    0 -9.9251210495e+01 -9.5334289574e+01 -9.2415577992e+00 1.3793058801e+02 1.0566000000e-01 0.0000e+00 -1.0000e+00
<mgrwt>
<rscale>  0 0.90029967E+03</rscale>
<asrwt>0</asrwt>
<pdfrwt beam="1">  1        2 0.20541715E+00 0.90029967E+03</pdfrwt>
<pdfrwt beam="2">  1       -2 0.61653468E-01 0.90029967E+03</pdfrwt>
<totfact> 0.38773025E+01</totfact>
</mgrwt>
</event>
<event>
 6      1 +1.8175624e-03 2.51102100e+02 7.81860800e-03 1.11261000e-01
        2 -1    0    0  501    0 +0.0000000000e+00 +0.0000000000e+00 +1.0614704388e+02 1.0614704391e+02 2.5500000000e-03 0.0000e+00 1.0000e+00
       -2 -1    0    0    0  501 -0.0000000000e+00 -0.0000000000e+00 -1.4850220197e+02 1.4850220199e+02 2.5500000000e-03 0.0000e+00 -1.0000e+00
      -13  1    1    2    0    0 +1.3105240052e+01 -2.6542695690e+01 -6.4986992978e+00 3.0306868328e+01 1.0566000000e-01 0.0000e+00 1.0000e+00
       13  1    1    2    0    0 -7.8458053129e+01 +2.6989553853e+01 +3.1440872395e+01 8.8727908456e+01 1.0566000000e-01 0.0000e+00 -1.0000e+00
      -13  1    1    2    0    0 +3.4909518731e+01 -4.4477299709e+00 -9.0517479470e+01 9.7117877106e+01 1.0566000000e-01 0.0000e+00 -1.0000e+00
       13  1    1    2    0    0 +3.0443294346e+01 +4.0008718073e+00 +2.3220148286e+01 3.8496592009e+01 1.0566000000e-01 0.0000e+00 1.0000e+00
<mgrwt>
<rscale>  0 0.25110213E+03</rscale>
<asrwt>0</asrwt>
<pdfrwt beam="1">  1        2 0.26536761E-01 0.25110213E+03</pdfrwt>
<pdfrwt beam="2">  1       -2 0.37125550E-01 0.25110213E+03</pdfrwt>
<totfact> 0.13782629E+03</totfact>
</mgrwt>
</event>
<event>
 6      1 +1.8175624e-03 2.67850200e+02 7.81860800e-03 1.10251600e-01
        2 -1    0    0  501    0 +0.0000000000e+00 +0.0000000000e+00 +4.9059851449e+02 4.9059851449e+02 2.5500000000e-03 0.0000e+00 1.0000e+00
       -2 -1    0    0    0  501 -0.0000000000e+00 -0.0000000000e+00 -3.6559289845e+01 3.6559289934e+01 2.5500000000e-03 0.0000e+00 -1.0000e+00
      -13  1    1    2    0    0 -3.2166024235e+01 +5.7730469781e+01 +3.2487418481e+01 7.3640367869e+01 1.0566000000e-01 0.0000e+00 -1.0000e+00
       13  1    1    2    0    0 +4.5780050364e+01 -3.0023287216e+01 +2.5036818295e+02 2.5628392260e+02 1.0566000000e-01 0.0000e+00 1.0000e+00
      -13  1    1    2    0    0 +3.9732138262e+01 -1.0087786136e+01 +8.4791753888e+01 9.4180990287e+01 1.0566000000e-01 0.0000e+00 -1.0000e+00
       13  1    1    2    0    0 -5.3346164390e+01 -1.7619396429e+01 +8.6391869326e+01 1.0305252367e+02 1.0566000000e-01 0.0000e+00 1.0000e+00
<mgrwt>
<rscale>  0 0.26785021E+03</rscale>
<asrwt>0</asrwt>
<pdfrwt beam="1">  1        2 0.12264963E+00 0.26785021E+03</pdfrwt>
<pdfrwt beam="2">  1       -2 0.91398226E-02 0.26785021E+03</pdfrwt>
<totfact> 0.27233394E+03</totfact>
</mgrwt>
</event>
<event>
 6      1 +1.8175624e-03 5.58853200e+02 7.81860800e-03 9.99465300e-02
       -2 -1    0    0    0  501 -0.0000000000e+00 +0.0000000000e+00 +6.9201183685e+02 6.9201183685e+02 2.5500000000e-03 0.0000e+00 -1.0000e+00
        2 -1    0    0  501    0 +0.0000000000e+00 -0.0000000000e+00 -1.1282932568e+02 1.1282932571e+02 2.5500000000e-03 0.0000e+00 1.0000e+00
      -13  1    1    2    0    0 +1.4887230002e+02 +1.1387597408e+02 +4.9888321842e+02 5.3293074219e+02 1.0566000000e-01 0.0000e+00 -1.0000e+00
       13  1    1    2    0    0 -1.0784092643e+02 -6.2568474568e+00 +2.8499151783e+01 1.1171851400e+02 1.0566000000e-01 0.0000e+00 1.0000e+00
      -13  1    1    2    0    0 -3.8420016094e+01 -5.3237939323e+00 +4.2349636807e+01 5.7427722575e+01 1.0566000000e-01 0.0000e+00 -1.0000e+00
       13  1    1    2    0    0 -2.6113574940e+00 -1.0229533269e+02 +9.4505041546e+00 1.0276418380e+02 1.0566000000e-01 0.0000e+00 1.0000e+00
<mgrwt>
<rscale>  0 0.55885321E+03</rscale>
<asrwt>0</asrwt>
<pdfrwt beam="1">  1        2 0.28207331E-01 0.55885321E+03</pdfrwt>
<pdfrwt beam="2">  1       -2 0.17300296E+00 0.55885321E+03</pdfrwt>
<totfact> 0.39760339E+01</totfact>
</mgrwt>
</event>
<event>
 6      1 +1.8175624e-03 2.52936200e+02 7.81860800e-03 1.11146300e-01
        2 -1    0    0  501    0 +0.0000000000e+00 +0.0000000000e+00 +1.8324099517e+02 1.8324099519e+02 2.5500000000e-03 0.0000e+00 -1.0000e+00
       -2 -1    0    0    0  501 -0.0000000000e+00 -0.0000000000e+00 -8.7284918144e+01 8.7284918181e+01 2.5500000000e-03 0.0000e+00 1.0000e+00
      -13  1    1    2    0    0 -5.7974323031e+01 -1.4472647224e+01 +2.1903014179e+01 6.3641439666e+01 1.0566000000e-01 0.0000e+00 -1.0000e+00
       13  1    1    2    0    0 +3.7636161636e+01 -4.5053107216e+01 -1.3315286872e+01 6.0196105862e+01 1.0566000000e-01 0.0000e+00 1.0000e+00
      -13  1    1    2    0    0 -2.8255441363e+01 +3.3554010930e+01 +5.5958486040e-01 4.3869874804e+01 1.0566000000e-01 0.0000e+00 1.0000e+00
       13  1    1    2    0    0 +4.8593602758e+01 +2.5971743510e+01 +8.6808764857e+01 1.0281849304e+02 1.0566000000e-01 0.0000e+00 -1.0000e+00
<mgrwt>
<rscale>  0 0.25293616E+03</rscale>
<asrwt>0</asrwt>
<pdfrwt beam="1">  1        2 0.45810248E-01 0.25293616E+03</pdfrwt>
<pdfrwt beam="2">  1       -2 0.21821230E-01 0.25293616E+03</pdfrwt>
<totfact> 0.19833098E+03</totfact>
</mgrwt>
</event>
<event>
 6      1 +1.8175624e-03 2.18693100e+02 7.81860800e-03 1.13486100e-01
       -2 -1    0    0    0  501 -0.0000000000e+00 +0.0000000000e+00 +4.5131845889e+02 4.5131845890e+02 2.5500000000e-03 0.0000e+00 -1.0000e+00
        2 -1    0    0  501    0 +0.0000000000e+00 -0.0000000000e+00 -2.6492756172e+01 2.6492756295e+01 2.5500000000e-03 0.0000e+00 1.0000e+00
      -13  1    1    2    0    0 +5.3674302448e+00 +2.8449348123e+01 +8.9603766405e+01 9.4164859869e+01 1.0566000000e-01 0.0000e+00 -1.0000e+00
       13  1    1    2    0    0 -4.1539338672e+00 -6.4880793684e+01 +2.6707738624e+02 2.7487654312e+02 1.0566000000e-01 0.0000e+00 1.0000e+00
      -13  1    1    2    0    0 -1.5149027547e+01 +3.4445453777e+01 -1.5561504892e+00 3.7661851918e+01 1.0566000000e-01 0.0000e+00 1.0000e+00
       13  1    1    2    0    0 +1.3935531169e+01 +1.9859917837e+00 +6.9700700565e+01 7.1107960283e+01 1.0566000000e-01 0.0000e+00 -1.0000e+00
<mgrwt>
<rscale>  0 0.21869312E+03</rscale>
<asrwt>0</asrwt>
<pdfrwt beam="1">  1        2 0.66231890E-02 0.21869312E+03</pdfrwt>
<pdfrwt beam="2">  1       -2 0.11282961E+00 0.21869312E+03</pdfrwt>
<totfact> 0.69487272E+02</totfact>
</mgrwt>
</event>
<event>
 6      1 +1.8175624e-03 2.04617200e+02 7.81860800e-03 1.14590100e-01
        2 -1    0    0  501    0 +0.0000000000e+00 +0.0000000000e+00 +4.0735532306e+02 4.0735532307e+02 2.5500000000e-03 0.0000e+00 -1.0000e+00
       -2 -1    0    0    0  501 -0.0000000000e+00 -0.0000000000e+00 -2.5695140874e+01 2.5695141000e+01 2.5500000000e-03 0.0000e+00 1.0000e+00
      -13  1    1    2    0    0 +3.8133195687e+01 +8.3331378756e+00 +1.1742185305e+02 1.2373958356e+02 1.0566000000e-01 0.0000e+00 1.0000e+00
       13  1    1    2    0    0 -2.0531709685e+00 +3.2951283109e+01 +5.9080376600e+01 6.7679425476e+01 1.0566000000e-01 0.0000e+00 1.0000e+00
      -13  1    1    2    0    0 -7.3908275744e+01 -4.8928012196e+01 +1.3357989446e+02 1.6031214230e+02 1.0566000000e-01 0.0000e+00 -1.0000e+00
       13  1    1    2    0    0 +3.7828251025e+01 +7.6435912121e+00 +7.1578058072e+01 8.1319312735e+01 1.0566000000e-01 0.0000e+00 -1.0000e+00
<mgrwt>
<rscale>  0 0.20461723E+03</rscale>
<asrwt>0</asrwt>
<pdfrwt beam="1">  1        2 0.10183883E+00 0.20461723E+03</pdfrwt>
<pdfrwt beam="2">  1       -2 0.64237853E-02 0.20461723E+03</pdfrwt>
<totfact> 0.58856882E+03</totfact>
</mgrwt>
</event>
<event>
 6      1 +1.8175624e-03 2.15836800e+02 7.81860800e-03 1.13702600e-01
        2 -1    0    0  501    0 +0.0000000000e+00 +0.0000000000e+00 +3.0533943506e+02 3.0533943507e+02 2.5500000000e-03 0.0000e+00 1.0000e+00
       -2 -1    0    0    0  501 -0.0000000000e+00 -0.0000000000e+00 -3.8142392536e+01 3.8142392621e+01 2.5500000000e-03 0.0000e+00 -1.0000e+00
      -13  1    1    2    0    0 -7.6601105781e+00 -2.4993672098e+01 +9.5705870645e+01 9.9211822778e+01 1.0566000000e-01 0.0000e+00 -1.0000e+00
       13  1    1    2    0    0 +1.6464140916e+01 -5.3650532684e+01 +9.3550818508e+01 1.0909268720e+02 1.0566000000e-01 0.0000e+00 1.0000e+00
      -13  1    1    2    0    0 -3.5943790757e+01 +2.9982198769e+01 +1.1000242115e+01 4.8082271448e+01 1.0566000000e-01 0.0000e+00 -1.0000e+00
       13  1    1    2    0    0 +2.7139760419e+01 +4.8662006013e+01 +6.6940111258e+01 8.7095046266e+01 1.0566000000e-01 0.0000e+00 1.0000e+00
<mgrwt>
<rscale>  0 0.21583676E+03</rscale>
<asrwt>0</asrwt>
<pdfrwt beam="1">  1        2 0.76334858E-01 0.21583676E+03</pdfrwt>
<pdfrwt beam="2">  1       -2 0.95355983E-02 0.21583676E+03</pdfrwt>
<totfact> 0.44354730E+03</totfact>
</mgrwt>
</event>
<event>
 6      1 +1.8175624e-03 4.49707400e+02 7.81860800e-03 1.02780900e-01
        1 -1    0    0  501    0 +0.0000000000e+00 +0.0000000000e+00 +6.6044042450e+02 6.6044042452e+02 5.0400000000e-03 0.0000e+00 -1.0000e+00
       -1 -1    0    0    0  501 -0.0000000000e+00 -0.0000000000e+00 -7.6553745874e+01 7.6553746040e+01 5.0400000000e-03 0.0000e+00 1.0000e+00
      -13  1    1    2    0    0 -5.4486032745e+01 +3.1409308441e+01 +6.7988961556e+00 6.3257478404e+01 1.0566000000e-01 0.0000e+00 -1.0000e+00
       13  1    1    2    0    0 -4.3690441677e+00 +8.8924050407e+01 +1.1356978591e+02 1.4430759759e+02 1.0566000000e-01 0.0000e+00 1.0000e+00
      -13  1    1    2    0    0 +2.7636332493e+01 -3.4780450316e+01 -1.1395892641e+01 4.5862011850e+01 1.0566000000e-01 0.0000e+00 1.0000e+00
       13  1    1    2    0    0 +3.1218744420e+01 -8.5552908532e+01 +4.7491388920e+02 4.8356708271e+02 1.0566000000e-01 0.0000e+00 -1.0000e+00
<mgrwt>
<rscale>  0 0.44970741E+03</rscale>
<asrwt>0</asrwt>
<pdfrwt beam="1">  1        1 0.16511011E+00 0.44970741E+03</pdfrwt>
<pdfrwt beam="2">  1       -1 0.19138436E-01 0.44970741E+03</pdfrwt>
<totfact> 0.30200748E+02</totfact>
</mgrwt>
</event>
<event>
 6      1 +1.8175624e-03 8.76115400e+02 7.81860800e-03 9.45594100e-02
        1 -1    0    0  501    0 +0.0000000000e+00 +0.0000000000e+00 +1.9884920050e+02 1.9884920056e+02 5.0400000000e-03 0.0000e+00 -1.0000e+00
       -1 -1    0    0    0  501 -0.0000000000e+00 -0.0000000000e+00 -9.6502540743e+02 9.6502540745e+02 5.0400000000e-03 0.0000e+00 1.0000e+00
      -13  1    1    2    0    0 +1.4301810204e+01 -7.6382556643e+01 -1.6158229318e+02 1.7929775617e+02 1.0566000000e-01 0.0000e+00 1.0000e+00
       13  1    1    2    0    0 -2.1628435242e+02 -1.3435896124e+02 +3.6740135202e+01 2.5725687603e+02 1.0566000000e-01 0.0000e+00 -1.0000e+00
      -13  1    1    2    0    0 +2.2209039079e+02 +1.7110815916e+02 -4.4449671205e+02 5.2552781277e+02 1.0566000000e-01 0.0000e+00 1.0000e+00
       13  1    1    2    0    0 -2.0107848577e+01 +3.9633358725e+01 -1.9683733691e+02 2.0179216304e+02 1.0566000000e-01 0.0000e+00 -1.0000e+00
<mgrwt>
<rscale>  0 0.87611536E+03</rscale>
<asrwt>0</asrwt>
<pdfrwt beam="1">  1        1 0.49712303E-01 0.87611536E+03</pdfrwt>
<pdfrwt beam="2">  1       -1 0.24125634E+00 0.87611536E+03</pdfrwt>
<totfact> 0.64613919E+00</totfact>
</mgrwt>
</event>
<event>
 6      1 +1.8175624e-03 3.55402400e+02 7.81860800e-03 1.06041900e-01
       -2 -1    0    0    0  501 -0.0000000000e+00 +0.0000000000e+00 +5.9847147991e+01 5.9847148046e+01 2.5500000000e-03 0.0000e+00 1.0000e+00
        2 -1    0    0  501    0 +0.0000000000e+00 -0.0000000000e+00 -5.2763951862e+02 5.2763951862e+02 2.5500000000e-03 0.0000e+00 -1.0000e+00
      -13  1    1    2    0    0 +1.6486289974e+01 -4.9567930391e+01 +1.3818437317e+01 5.4034598678e+01 1.0566000000e-01 0.0000e+00 1.0000e+00
       13  1    1    2    0    0 +2.2022712175e+01 +1.3165350541e+01 -7.4210834205e+01 7.8521241609e+01 1.0566000000e-01 0.0000e+00 -1.0000e+00
      -13  1    1    2    0    0 +1.5391134655e+01 -7.1073114668e+01 -2.2506930461e+02 2.3652584996e+02 1.0566000000e-01 0.0000e+00 1.0000e+00
       13  1    1    2    0    0 -5.3900136803e+01 +1.0747569452e+02 -1.8233066912e+02 2.1840497642e+02 1.0566000000e-01 0.0000e+00 -1.0000e+00
<mgrwt>
<rscale>  0 0.35540242E+03</rscale>
<asrwt>0</asrwt>
<pdfrwt beam="1">  1        2 0.13190987E+00 0.35540242E+03</pdfrwt>
<pdfrwt beam="2">  1       -2 0.14961789E-01 0.35540242E+03</pdfrwt>
<totfact> 0.11143517E+03</totfact>
</mgrwt>
</event>
<event>
 6      1 +1.8175624e-03 2.95855300e+02 7.81860800e-03 1.08733100e-01
        1 -1    0    0  501    0 +0.0000000000e+00 +0.0000000000e+00 +3.3576622055e+02 3.3576622059e+02 5.0400000000e-03 0.0000e+00 -1.0000e+00
       -1 -1    0    0    0  501 -0.0000000000e+00 -0.0000000000e+00 -6.5172094488e+01 6.5172094682e+01 5.0400000000e-03 0.0000e+00 1.0000e+00
      -13  1    1    2    0    0 +8.1721705700e+01 -8.1535540761e+01 +3.8935988958e+01 1.2182981569e+02 1.0566000000e-01 0.0000e+00 1.0000e+00
       13  1    1    2    0    0 -9.2902564089e+01 +5.5562645792e+01 +1.7902823601e+02 2.0921093297e+02 1.0566000000e-01 0.0000e+00 -1.0000e+00
      -13  1    1    2    0    0 +1.4912983794e+01 +1.7007445659e+00 +4.1829568661e+00 1.5581973877e+01 1.0566000000e-01 0.0000e+00 1.0000e+00
       13  1    1    2    0    0 -3.7321254055e+00 +2.4272150403e+01 +4.8446944229e+01 5.4315592737e+01 1.0566000000e-01 0.0000e+00 -1.0000e+00
<mgrwt>
<rscale>  0 0.29585529E+03</rscale>
<asrwt>0</asrwt>
<pdfrwt beam="1">  1        1 0.83941554E-01 0.29585529E+03</pdfrwt>
<pdfrwt beam="2">  1       -1 0.16293024E-01 0.29585529E+03</pdfrwt>
<totfact> 0.11305591E+03</totfact>
</mgrwt>
</event>
<event>
 6      1 +1.8175624e-03 1.05506900e+03 7.81860800e-03 9.25012600e-02
       -2 -1    0    0    0  501 -0.0000000000e+00 +0.0000000000e+00 +2.6815195968e+02 2.6815195969e+02 2.5500000000e-03 0.0000e+00 1.0000e+00
        2 -1    0    0  501    0 +0.0000000000e+00 -0.0000000000e+00 -1.0378166446e+03 1.0378166446e+03 2.5500000000e-03 0.0000e+00 -1.0000e+00
      -13  1    1    2    0    0 -6.5656153824e+00 -1.7400575448e+01 -7.5956551561e+01 7.8200359464e+01 1.0566000000e-01 0.0000e+00 -1.0000e+00
       13  1    1    2    0    0 +1.4233032903e+01 +5.5647981991e+01 -1.1370287696e+02 1.2738772515e+02 1.0566000000e-01 0.0000e+00 -1.0000e+00
      -13  1    1    2    0    0 +2.5670652239e+02 -1.8915934130e+02 +1.1711066226e+02 3.3969753225e+02 1.0566000000e-01 0.0000e+00 1.0000e+00
       13  1    1    2    0    0 -2.6437393991e+02 +1.5091193476e+02 -6.9711591870e+02 7.6068298747e+02 1.0566000000e-01 0.0000e+00 1.0000e+00
<mgrwt>
<rscale>  0 0.10550688E+04</rscale>
<asrwt>0</asrwt>
<pdfrwt beam="1">  1        2 0.25945415E+00 0.10550688E+04</pdfrwt>
<pdfrwt beam="2">  1       -2 0.67037993E-01 0.10550688E+04</pdfrwt>
<totfact> 0.20269055E+01</totfact>
</mgrwt>
</event>
<event>
 6      1 +1.8175624e-03 6.03801900e+02 7.81860800e-03 9.89754900e-02
       -1 -1    0    0    0  501 -0.0000000000e+00 +0.0000000000e+00 +6.5166931332e+01 6.5166931527e+01 5.0400000000e-03 0.0000e+00 -1.0000e+00
        1 -1    0    0  501    0 +0.0000000000e+00 -0.0000000000e+00 -1.3986264798e+03 1.3986264799e+03 5.0400000000e-03 0.0000e+00 1.0000e+00
      -13  1    1    2    0    0 -1.3995371048e+02 -1.0251615121e+02 -1.5670875947e+02 2.3378248180e+02 1.0566000000e-01 0.0000e+00 -1.0000e+00
       13  1    1    2    0    0 +1.6220481068e+02 +1.8802970040e+02 -8.3050928033e+02 8.6683980338e+02 1.0566000000e-01 0.0000e+00 1.0000e+00
      -13  1    1    2    0    0 +1.5622058281e+01 -6.0124916909e+01 -2.3183003172e+02 2.4000881048e+02 1.0566000000e-01 0.0000e+00 1.0000e+00
       13  1    1    2    0    0 -3.7873158482e+01 -2.5388632278e+01 -1.1441147699e+02 1.2316231572e+02 1.0566000000e-01 0.0000e+00 -1.0000e+00
<mgrwt>
<rscale>  0 0.60380194E+03</rscale>
<asrwt>0</asrwt>
<pdfrwt beam="1">  1        1 0.34965652E+00 0.60380194E+03</pdfrwt>
<pdfrwt beam="2">  1       -1 0.16291737E-01 0.60380194E+03</pdfrwt>
<totfact> 0.59038828E+01</totfact>
</mgrwt>
</event>
<event>
 6      1 +1.8175624e-03 8.84723300e+02 7.81860800e-03 9.44488200e-02
       -2 -1    0    0    0  501 -0.0000000000e+00 +0.0000000000e+00 +2.6530865002e+02 2.6530865004e+02 2.5500000000e-03 0.0000e+00 1.0000e+00
        2 -1    0    0  501    0 +0.0000000000e+00 -0.0000000000e+00 -7.3757050216e+02 7.3757050216e+02 2.5500000000e-03 0.0000e+00 -1.0000e+00
      -13  1    1    2    0    0 -1.1808753532e+02 +7.1255524591e+01 -9.9576331574e+01 1.7011017829e+02 1.0566000000e-01 0.0000e+00 1.0000e+00
       13  1    1    2    0    0 +1.2928211938e+02 +9.1537584411e+01 +1.4685110412e+01 1.5908695541e+02 1.0566000000e-01 0.0000e+00 -1.0000e+00
      -13  1    1    2    0    0 +7.1649620326e+01 +1.5716283189e+02 -1.1410307395e+01 1.7310121345e+02 1.0566000000e-01 0.0000e+00 1.0000e+00
       13  1    1    2    0    0 -8.2844204386e+01 -3.1995594089e+02 -3.7596032358e+02 5.0058080504e+02 1.0566000000e-01 0.0000e+00 -1.0000e+00
<mgrwt>
<rscale>  0 0.88472331E+03</rscale>
<asrwt>0</asrwt>
<pdfrwt beam="1">  1        2 0.18439262E+00 0.88472331E+03</pdfrwt>
<pdfrwt beam="2">  1       -2 0.66327164E-01 0.88472331E+03</pdfrwt>
<totfact> 0.39897849E+01</totfact>
</mgrwt>
</event>
<event>
 6      1 +1.8175624e-03 2.48366500e+02 7.81860800e-03 1.11434200e-01
       -1 -1    0    0    0  501 -0.0000000000e+00 +0.0000000000e+00 +2.6735238568e+01 2.6735239043e+01 5.0400000000e-03 0.0000e+00 1.0000e+00
        1 -1    0    0  501    0 +0.0000000000e+00 -0.0000000000e+00 -5.7682223525e+02 5.7682223527e+02 5.0400000000e-03 0.0000e+00 -1.0000e+00
      -13  1    1    2    0    0 -1.0490224254e+01 -2.5183402410e+00 +7.6195657622e+00 1.3208171293e+01 1.0566000000e-01 0.0000e+00 -1.0000e+00
       13  1    1    2    0    0 +3.4093089275e+01 +4.1854858792e+01 -5.2958984499e+01 7.5622967041e+01 1.0566000000e-01 0.0000e+00 1.0000e+00
      -13  1    1    2    0    0 -4.7227800341e+01 -5.4985841893e+01 -3.5630358924e+02 3.6360165951e+02 1.0566000000e-01 0.0000e+00 -1.0000e+00
       13  1    1    2    0    0 +2.3624935320e+01 +1.5649323341e+01 -1.4844398871e+02 1.5112467646e+02 1.0566000000e-01 0.0000e+00 1.0000e+00
<mgrwt>
<rscale>  0 0.24836651E+03</rscale>
<asrwt>0</asrwt>
<pdfrwt beam="1">  1        1 0.14420552E+00 0.24836651E+03</pdfrwt>
<pdfrwt beam="2">  1       -1 0.66838116E-02 0.24836651E+03</pdfrwt>
<totfact> 0.20216612E+03</totfact>
</mgrwt>
</event>
<event>
 6      1 +1.8175624e-03 3.62863400e+02 7.81860800e-03 1.05745600e-01
       -1 -1    0    0    0  501 -0.0000000000e+00 +0.0000000000e+00 +4.4816420566e+02 4.4816420569e+02 5.0400000000e-03 0.0000e+00 -1.0000e+00
        1 -1    0    0  501    0 +0.0000000000e+00 -0.0000000000e+00 -7.3449543070e+01 7.3449543243e+01 5.0400000000e-03 0.0000e+00 1.0000e+00
      -13  1    1    2    0    0 -2.5014173048e+01 +2.6492882046e+00 +1.4774961858e+02 1.4987557685e+02 1.0566000000e-01 0.0000e+00 1.0000e+00
       13  1    1    2    0    0 -7.2460658669e+01 +5.4706997384e+01 +6.8396743096e+01 1.1367290023e+02 1.0566000000e-01 0.0000e+00 -1.0000e+00
      -13  1    1    2    0    0 -4.2555045270e+01 -4.6666462911e+01 +5.0281550853e+01 8.0727542752e+01 1.0566000000e-01 0.0000e+00 -1.0000e+00
       13  1    1    2    0    0 +1.4002987699e+02 -1.0689822677e+01 +1.0828675006e+02 1.7733772909e+02 1.0566000000e-01 0.0000e+00 1.0000e+00
<mgrwt>
<rscale>  0 0.36286337E+03</rscale>
<asrwt>0</asrwt>
<pdfrwt beam="1">  1        1 0.18362386E-01 0.36286337E+03</pdfrwt>
<pdfrwt beam="2">  1       -1 0.11204105E+00 0.36286337E+03</pdfrwt>
<totfact> 0.22143999E+02</totfact>
</mgrwt>
</event>
<event>
 6      1 +1.8175624e-03 5.14854000e+02 7.81860800e-03 1.00997300e-01
        2 -1    0    0  501    0 +0.0000000000e+00 +0.0000000000e+00 +3.6580494245e+02 3.6580494246e+02 2.5500000000e-03 0.0000e+00 -1.0000e+00
       -2 -1    0    0    0  501 -0.0000000000e+00 -0.0000000000e+00 -1.8115846322e+02 1.8115846323e+02 2.5500000000e-03 0.0000e+00 1.0000e+00
      -13  1    1    2    0    0 +2.9843911977e+01 +3.4228606304e+01 -1.0270641031e+02 1.1229814982e+02 1.0566000000e-01 0.0000e+00 1.0000e+00
       13  1    1    2    0    0 -4.6174820403e+01 +1.0647596504e+02 +1.9885393151e+02 2.3024365879e+02 1.0566000000e-01 0.0000e+00 -1.0000e+00
      -13  1    1    2    0    0 -3.7823382373e+00 -1.3067362098e+02 +1.1182340035e+02 1.7203018727e+02 1.0566000000e-01 0.0000e+00 -1.0000e+00
       13  1    1    2    0    0 +2.0113246664e+01 -1.0030950361e+01 -2.3324442314e+01 3.2391409815e+01 1.0566000000e-01 0.0000e+00 1.0000e+00
<mgrwt>
<rscale>  0 0.51485400E+03</rscale>
<asrwt>0</asrwt>
<pdfrwt beam="1">  1        2 0.91451235E-01 0.51485400E+03</pdfrwt>
<pdfrwt beam="2">  1       -2 0.45289616E-01 0.51485400E+03</pdfrwt>
<totfact> 0.23657582E+02</totfact>
</mgrwt>
</event>
<event>
 6      1 +1.8175624e-03 6.97029900e+02 7.81860800e-03 9.72232500e-02
        2 -1    0    0  501    0 +0.0000000000e+00 +0.0000000000e+00 +7.9495527950e+02 7.9495527951e+02 2.5500000000e-03 0.0000e+00 -1.0000e+00
       -2 -1    0    0    0  501 -0.0000000000e+00 -0.0000000000e+00 -1.5279183442e+02 1.5279183444e+02 2.5500000000e-03 0.0000e+00 1.0000e+00
      -13  1    1    2    0    0 +4.4681668706e+01 +6.8128943618e+01 +2.7658520705e+02 2.8833555522e+02 1.0566000000e-01 0.0000e+00 -1.0000e+00
       13  1    1    2    0    0 +2.5429186327e+01 -3.2518910391e+01 +2.3762601004e+02 2.4118510497e+02 1.0566000000e-01 0.0000e+00 1.0000e+00
      -13  1    1    2    0    0 -1.3496731113e+02 +8.0187559755e+01 -7.6369944997e+01 1.7458121170e+02 1.0566000000e-01 0.0000e+00 1.0000e+00
       13  1    1    2    0    0 +6.4856456101e+01 -1.1579759298e+02 +2.0432217299e+02 2.4364524206e+02 1.0566000000e-01 0.0000e+00 -1.0000e+00
<mgrwt>
<rscale>  0 0.69702991E+03</rscale>
<asrwt>0</asrwt>
<pdfrwt beam="1">  1        2 0.19873882E+00 0.69702991E+03</pdfrwt>
<pdfrwt beam="2">  1       -2 0.38197959E-01 0.69702991E+03</pdfrwt>
<totfact> 0.11033213E+02</totfact>
</mgrwt>
</event>
<event>
 6      1 +1.8175624e-03 2.20717100e+02 7.81860800e-03 1.13335000e-01
        2 -1    0    0  501    0 +0.0000000000e+00 +0.0000000000e+00 +3.7340824335e+01 3.7340824422e+01 2.5500000000e-03 0.0000e+00 1.0000e+00
       -2 -1    0    0    0  501 -0.0000000000e+00 -0.0000000000e+00 -3.2615811509e+02 3.2615811510e+02 2.5500000000e-03 0.0000e+00 -1.0000e+00
      -13  1    1    2    0    0 +3.2888836509e+00 +3.4198366093e+01 -9.3613241888e+01 9.9718580114e+01 1.0566000000e-01 0.0000e+00 -1.0000e+00
       13  1    1    2    0    0 +1.4836988051e+01 +3.2185359327e+01 +6.1421126143e+00 3.5969018347e+01 1.0566000000e-01 0.0000e+00 1.0000e+00
      -13  1    1    2    0    0 -2.8242510196e+01 -8.7581884350e+00 -1.3980330526e+02 1.4289618809e+02 1.0566000000e-01 0.0000e+00 -1.0000e+00
       13  1    1    2    0    0 +1.0116638493e+01 -5.7625536985e+01 -6.1542856222e+01 8.4915152966e+01 1.0566000000e-01 0.0000e+00 1.0000e+00
<mgrwt>
<rscale>  0 0.22071713E+03</rscale>
<asrwt>0</asrwt>
<pdfrwt beam="1">  1        2 0.93352071E-02 0.22071713E+03</pdfrwt>
<pdfrwt beam="2">  1       -2 0.81539520E-01 0.22071713E+03</pdfrwt>
<totfact> 0.94739708E+02</totfact>
</mgrwt>
</event>
<event>
 7      1 +1.8175624e-03 9.02522000e+01 7.81860800e-03 1.30224200e-01
       -1 -1    0    0    0  501 -0.0000000000e+00 +0.0000000000e+00 +7.5226120020e+00 7.5226136904e+00 5.0400000000e-03 0.0000e+00 1.0000e+00
        1 -1    0    0  501    0 +0.0000000000e+00 -0.0000000000e+00 -2.7069917223e+02 2.7069917227e+02 5.0400000000e-03 0.0000e+00 -1.0000e+00
       23  2    1    2    0    0 -3.5527136788e-15 +0.0000000000e+00 -2.6317656022e+02 2.7822178596e+02 9.0252204036e+01 0.0000e+00 0.0000e+00
      -13  1    3    3    0    0 -1.0576490160e+01 -1.1571518561e+01 -2.3437605357e+01 2.8197423549e+01 1.0566000000e-01 0.0000e+00 1.0000e+00
       13  1    3    3    0    0 +1.5509551726e+01 +2.3689556965e+01 -1.1813140405e+02 1.2147749211e+02 1.0566000000e-01 0.0000e+00 1.0000e+00
      -13  1    3    3    0    0 +7.0371492282e+00 -2.3631609023e+01 -6.3743925881e+01 6.8346716564e+01 1.0566000000e-01 0.0000e+00 -1.0000e+00
       13  1    3    3    0    0 -1.1970210795e+01 +1.1513570619e+01 -5.7863624939e+01 6.0200153737e+01 1.0566000000e-01 0.0000e+00 -1.0000e+00
<mgrwt>
<rscale>  0 0.90252204E+02</rscale>
<asrwt>0</asrwt>
<pdfrwt beam="1">  1        1 0.67674761E-01 0.90252204E+02</pdfrwt>
<pdfrwt beam="2">  1       -1 0.18806541E-02 0.90252204E+02</pdfrwt>
<totfact> 0.35647694E+04</totfact>
</mgrwt>
</event>
<event>
 6      1 +1.8175624e-03 3.44300600e+02 7.81860800e-03 1.06497900e-01
        2 -1    0    0  501    0 +0.0000000000e+00 +0.0000000000e+00 +2.6000565134e+02 2.6000565135e+02 2.5500000000e-03 0.0000e+00 -1.0000e+00
       -2 -1    0    0    0  501 -0.0000000000e+00 -0.0000000000e+00 -1.1398106248e+02 1.1398106251e+02 2.5500000000e-03 0.0000e+00 1.0000e+00
      -13  1    1    2    0    0 +1.2024150674e+02 -6.0324255456e+01 +8.5404541656e+01 1.5934548201e+02 1.0566000000e-01 0.0000e+00 1.0000e+00
       13  1    1    2    0    0 -9.7735241980e+01 +3.8580769014e+01 +2.3118037128e+01 1.0758767619e+02 1.0566000000e-01 0.0000e+00 -1.0000e+00
      -13  1    1    2    0    0 -9.2048661051e+00 -3.3890635089e+01 +3.5322863494e+01 4.9809843969e+01 1.0566000000e-01 0.0000e+00 -1.0000e+00
       13  1    1    2    0    0 -1.3301398653e+01 +5.5634121531e+01 +2.1791465835e+00 5.7243711694e+01 1.0566000000e-01 0.0000e+00 1.0000e+00
<mgrwt>
<rscale>  0 0.34430057E+03</rscale>
<asrwt>0</asrwt>
<pdfrwt beam="1">  1        2 0.65001412E-01 0.34430057E+03</pdfrwt>
<pdfrwt beam="2">  1       -2 0.28495266E-01 0.34430057E+03</pdfrwt>
<totfact> 0.84680523E+02</totfact>
</mgrwt>
</event>
<event>
 6      1 +1.8175624e-03 6.20473400e+02 7.81860800e-03 9.86381800e-02
       -2 -1    0    0    0  501 -0.0000000000e+00 +0.0000000000e+00 +4.9056634314e+02 4.9056634315e+02 2.5500000000e-03 0.0000e+00 1.0000e+00
        2 -1    0    0  501    0 +0.0000000000e+00 -0.0000000000e+00 -1.9619529124e+02 1.9619529126e+02 2.5500000000e-03 0.0000e+00 -1.0000e+00
      -13  1    1    2    0    0 -5.4332832348e+01 +3.6584250457e+01 +2.6374043892e+01 7.0612076925e+01 1.0566000000e-01 0.0000e+00 -1.0000e+00
       13  1    1    2    0    0 +5.0964209207e+01 +6.5629913023e+01 +5.6707282811e+01 1.0060001586e+02 1.0566000000e-01 0.0000e+00 1.0000e+00
      -13  1    1    2    0    0 -1.1109208088e+01 +1.7071645499e+02 +1.6624613086e+02 2.3854833828e+02 1.0566000000e-01 0.0000e+00 1.0000e+00
       13  1    1    2    0    0 +1.4477831229e+01 -2.7293061847e+02 +4.5043594342e+01 2.7700120334e+02 1.0566000000e-01 0.0000e+00 -1.0000e+00
<mgrwt>
<rscale>  0 0.62047339E+03</rscale>
<asrwt>0</asrwt>
<pdfrwt beam="1">  1        2 0.49048823E-01 0.62047339E+03</pdfrwt>
<pdfrwt beam="2">  1       -2 0.12264158E+00 0.62047339E+03</pdfrwt>
<totfact> 0.52570138E+01</totfact>
</mgrwt>
</event>
<event>
 6      1 +1.8175624e-03 1.73283900e+03 7.81860800e-03 8.74285300e-02
        1 -1    0    0  501    0 +0.0000000000e+00 +0.0000000000e+00 +7.7249288593e+02 7.7249288595e+02 5.0400000000e-03 0.0000e+00 -1.0000e+00
       -1 -1    0    0    0  501 -0.0000000000e+00 -0.0000000000e+00 -9.7176678677e+02 9.7176678679e+02 5.0400000000e-03 0.0000e+00 1.0000e+00
      -13  1    1    2    0    0 -1.0524612656e+01 -7.8324449045e+00 +7.4519332900e+01 7.5665426746e+01 1.0566000000e-01 0.0000e+00 1.0000e+00
       13  1    1    2    0    0 -5.5111453689e+01 -6.6364537583e+01 +4.9459678556e-01 8.6265751990e+01 1.0566000000e-01 0.0000e+00 -1.0000e+00
      -13  1    1    2    0    0 +7.6528816417e+02 +5.9971670988e+01 -4.0883070399e+02 8.6971554615e+02 1.0566000000e-01 0.0000e+00 1.0000e+00
       13  1    1    2    0    0 -6.9965209782e+02 +1.4225311500e+01 +1.3454287346e+02 7.1261294784e+02 1.0566000000e-01 0.0000e+00 -1.0000e+00
<mgrwt>
<rscale>  0 0.17328392E+04</rscale>
<asrwt>0</asrwt>
<pdfrwt beam="1">  1        1 0.19312322E+00 0.17328392E+04</pdfrwt>
<pdfrwt beam="2">  1       -1 0.24294170E+00 0.17328392E+04</pdfrwt>
<totfact> 0.70104748E-01</totfact>
</mgrwt>
</event>
<event>
 6      1 +1.8175624e-03 1.63594800e+02 7.81860800e-03 1.18469700e-01
       -2 -1    0    0    0  501 -0.0000000000e+00 +0.0000000000e+00 +1.4900378160e+02 1.4900378162e+02 2.5500000000e-03 0.0000e+00 1.0000e+00
        2 -1    0    0  501    0 +0.0000000000e+00 -0.0000000000e+00 -4.4903636377e+01 4.4903636450e+01 2.5500000000e-03 0.0000e+00 -1.0000e+00
      -13  1    1    2    0    0 +1.0867316571e+01 +4.2114158678e+00 +1.8333451528e+01 2.1724668053e+01 1.0566000000e-01 0.0000e+00 1.0000e+00
       13  1    1    2    0    0 +2.5955681064e+01 +1.2107180759e+01 -8.4291290298e+00 2.9855361088e+01 1.0566000000e-01 0.0000e+00 -1.0000e+00
      -13  1    1    2    0    0 -3.0037589201e+01 +3.7473563459e+01 +2.4170830330e+01 5.3765834190e+01 1.0566000000e-01 0.0000e+00 -1.0000e+00
       13  1    1    2    0    0 -6.7854084339e+00 -5.3792160085e+01 +7.0024992397e+01 8.8561554743e+01 1.0566000000e-01 0.0000e+00 1.0000e+00
<mgrwt>
<rscale>  0 0.16359476E+03</rscale>
<asrwt>0</asrwt>
<pdfrwt beam="1">  1        2 0.11225909E-01 0.16359476E+03</pdfrwt>
<pdfrwt beam="2">  1       -2 0.37250945E-01 0.16359476E+03</pdfrwt>
<totfact> 0.36666259E+03</totfact>
</mgrwt>
</event>
<event>
 6      1 +1.8175624e-03 3.57647300e+02 7.81860800e-03 1.05951900e-01
        2 -1    0    0  501    0 +0.0000000000e+00 +0.0000000000e+00 +4.2318383964e+02 4.2318383964e+02 2.5500000000e-03 0.0000e+00 -1.0000e+00
       -2 -1    0    0    0  501 -0.0000000000e+00 -0.0000000000e+00 -7.5565043352e+01 7.5565043395e+01 2.5500000000e-03 0.0000e+00 1.0000e+00
      -13  1    1    2    0    0 -1.4834357018e+01 +3.4614659567e+00 -9.5461880009e+00 1.7977229044e+01 1.0566000000e-01 0.0000e+00 -1.0000e+00
       13  1    1    2    0    0 +1.1009526725e+02 -8.4671555078e+01 +1.1842034181e+02 1.8252021430e+02 1.0566000000e-01 0.0000e+00 1.0000e+00
      -13  1    1    2    0    0 -2.2092991554e+01 -3.4369501244e+01 +4.1712526151e+01 5.8389287489e+01 1.0566000000e-01 0.0000e+00 1.0000e+00
       13  1    1    2    0    0 -7.3167918677e+01 +1.1557959037e+02 +1.9703211633e+02 2.3986215221e+02 1.0566000000e-01 0.0000e+00 -1.0000e+00
<mgrwt>
<rscale>  0 0.35764734E+03</rscale>
<asrwt>0</asrwt>
<pdfrwt beam="1">  1        2 0.10579596E+00 0.35764734E+03</pdfrwt>
<pdfrwt beam="2">  1       -2 0.18891261E-01 0.35764734E+03</pdfrwt>
<totfact> 0.99509491E+02</totfact>
</mgrwt>
</event>
<event>
 6      1 +1.8175624e-03 3.90226700e+02 7.81860800e-03 1.04721700e-01
       -2 -1    0    0    0  501 -0.0000000000e+00 +0.0000000000e+00 +1.1594895431e+02 1.1594895434e+02 2.5500000000e-03 0.0000e+00 1.0000e+00
        2 -1    0    0  501    0 +0.0000000000e+00 -0.0000000000e+00 -3.2832743091e+02 3.2832743092e+02 2.5500000000e-03 0.0000e+00 -1.0000e+00
      -13  1    1    2    0    0 -4.3383721492e+01 +1.2255000938e+02 -1.7039239219e+02 2.1432272528e+02 1.0566000000e-01 0.0000e+00 1.0000e+00
       13  1    1    2    0    0 -1.1929506938e+01 -2.4768742426e+01 -4.3035697078e+01 5.1067466397e+01 1.0566000000e-01 0.0000e+00 -1.0000e+00
      -13  1    1    2    0    0 +3.1223869423e+01 -9.6843214251e+01 +5.7944504765e+01 1.1709447026e+02 1.0566000000e-01 0.0000e+00 1.0000e+00
       13  1    1    2    0    0 +2.4089359007e+01 -9.3805270665e-01 -5.6894892095e+01 6.1791723319e+01 1.0566000000e-01 0.0000e+00 -1.0000e+00
<mgrwt>
<rscale>  0 0.39022672E+03</rscale>
<asrwt>0</asrwt>
<pdfrwt beam="1">  1        2 0.82081856E-01 0.39022672E+03</pdfrwt>
<pdfrwt beam="2">  1       -2 0.28987239E-01 0.39022672E+03</pdfrwt>
<totfact> 0.63056035E+02</totfact>
</mgrwt>
</event>
<event>
 6      1 +1.8175624e-03 1.96929700e+02 7.81860800e-03 1.15235600e-01
       -2 -1    0    0    0  501 -0.0000000000e+00 +0.0000000000e+00 +1.5109147986e+02 1.5109147988e+02 2.5500000000e-03 0.0000e+00 1.0000e+00
        2 -1    0    0  501    0 +0.0000000000e+00 -0.0000000000e+00 -6.4168614151e+01 6.4168614201e+01 2.5500000000e-03 0.0000e+00 -1.0000e+00
      -13  1    1    2    0    0 -6.1688478412e+00 -2.2432039770e+01 -1.0755586596e+01 2.5630936366e+01 1.0566000000e-01 0.0000e+00 1.0000e+00
       13  1    1    2    0    0 -5.5322686387e+01 -2.2646773495e+01 +5.9259458211e+00 6.0071657016e+01 1.0566000000e-01 0.0000e+00 -1.0000e+00
      -13  1    1    2    0    0 +1.9377648020e+01 -8.1147144151e+00 +9.8481731197e+00 2.3202144527e+01 1.0566000000e-01 0.0000e+00 1.0000e+00
       13  1    1    2    0    0 +4.2113886208e+01 +5.3193527680e+01 +8.1904333363e+01 1.0635535617e+02 1.0566000000e-01 0.0000e+00 -1.0000e+00
<mgrwt>
<rscale>  0 0.19692974E+03</rscale>
<asrwt>0</asrwt>
<pdfrwt beam="1">  1        2 0.16042154E-01 0.19692974E+03</pdfrwt>
<pdfrwt beam="2">  1       -2 0.37772870E-01 0.19692974E+03</pdfrwt>
<totfact> 0.23527314E+03</totfact>
</mgrwt>
</event>
<event>
 6      1 +1.8175624e-03 6.71915800e+02 7.81860800e-03 9.76650300e-02
       -2 -1    0    0    0  501 -0.0000000000e+00 +0.0000000000e+00 +2.2753745340e+02 2.2753745341e+02 2.5500000000e-03 0.0000e+00 -1.0000e+00
        2 -1    0    0  501    0 +0.0000000000e+00 -0.0000000000e+00 -4.9604009514e+02 4.9604009515e+02 2.5500000000e-03 0.0000e+00 1.0000e+00
      -13  1    1    2    0    0 +4.7060425159e+01 +3.7050916700e+01 -9.6572293619e+01 1.1363834346e+02 1.0566000000e-01 0.0000e+00 1.0000e+00
       13  1    1    2    0    0 +1.5790226262e+02 +1.0272120012e+02 -9.7820277937e+01 2.1225830357e+02 1.0566000000e-01 0.0000e+00 1.0000e+00
      -13  1    1    2    0    0 +9.9529432470e+00 +5.6579097612e+01 -8.9296070287e+01 1.0617935156e+02 1.0566000000e-01 0.0000e+00 -1.0000e+00
       13  1    1    2    0    0 -2.1491563103e+02 -1.9635121443e+02 +1.5186000100e+01 2.9150154997e+02 1.0566000000e-01 0.0000e+00 -1.0000e+00
<mgrwt>
<rscale>  0 0.67191577E+03</rscale>
<asrwt>0</asrwt>
<pdfrwt beam="1">  1        2 0.12401002E+00 0.67191577E+03</pdfrwt>
<pdfrwt beam="2">  1       -2 0.56884364E-01 0.67191577E+03</pdfrwt>
<totfact> 0.10058045E+02</totfact>
</mgrwt>
</event>
<event>
 6      1 +1.8175624e-03 4.42177800e+02 7.81860800e-03 1.03008100e-01
       -2 -1    0    0    0  501 -0.0000000000e+00 +0.0000000000e+00 +1.4576247495e+02 1.4576247497e+02 2.5500000000e-03 0.0000e+00 1.0000e+00
        2 -1    0    0  501    0 +0.0000000000e+00 -0.0000000000e+00 -3.3534210945e+02 3.3534210946e+02 2.5500000000e-03 0.0000e+00 -1.0000e+00
      -13  1    1    2    0    0 -6.7270387306e+01 -9.2399679877e+01 +9.6760298032e+01 1.4975170212e+02 1.0566000000e-01 0.0000e+00 1.0000e+00
       13  1    1    2    0    0 +8.8326166991e+00 +4.1560650994e+01 -1.0833217237e+02 1.1636654830e+02 1.0566000000e-01 0.0000e+00 -1.0000e+00
      -13  1    1    2    0    0 +3.2711469921e+01 +3.4345297760e+01 -1.5902051975e+01 5.0025255258e+01 1.0566000000e-01 0.0000e+00 1.0000e+00
       13  1    1    2    0    0 +2.5726300686e+01 +1.6493731123e+01 -1.6210570819e+02 1.6496107876e+02 1.0566000000e-01 0.0000e+00 -1.0000e+00
<mgrwt>
<rscale>  0 0.44217777E+03</rscale>
<asrwt>0</asrwt>
<pdfrwt beam="1">  1        2 0.83835526E-01 0.44217777E+03</pdfrwt>
<pdfrwt beam="2">  1       -2 0.36440619E-01 0.44217777E+03</pdfrwt>
<totfact> 0.40112561E+02</totfact>
</mgrwt>
</event>
<event>
 6      1 +1.8175624e-03 3.52896700e+02 7.81860800e-03 1.06143200e-01
        2 -1    0    0  501    0 +0.0000000000e+00 +0.0000000000e+00 +1.0475406211e+03 1.0475406211e+03 2.5500000000e-03 0.0000e+00 1.0000e+00
       -2 -1    0    0    0  501 -0.0000000000e+00 -0.0000000000e+00 -2.9721060869e+01 2.9721060978e+01 2.5500000000e-03 0.0000e+00 -1.0000e+00
      -13  1    1    2    0    0 +9.8208710532e+01 -2.6710276970e+01 +1.1667348171e+02 1.5482603857e+02 1.0566000000e-01 0.0000e+00 -1.0000e+00
       13  1    1    2    0    0 +1.6546451036e+00 -1.0566029975e+01 +1.2532300373e+01 1.6475695935e+01 1.0566000000e-01 0.0000e+00 1.0000e+00
      -13  1    1    2    0    0 +3.0444460504e+01 +2.4782643355e+01 +1.1942496684e+02 1.2571148896e+02 1.0566000000e-01 0.0000e+00 -1.0000e+00
       13  1    1    2    0    0 -1.3030781614e+02 +1.2493663591e+01 +7.6918881132e+02 7.8024845863e+02 1.0566000000e-01 0.0000e+00 1.0000e+00
<mgrwt>
<rscale>  0 0.35289669E+03</rscale>
<asrwt>0</asrwt>
<pdfrwt beam="1">  1        2 0.26188516E+00 0.35289669E+03</pdfrwt>
<pdfrwt beam="2">  1       -2 0.74302651E-02 0.35289669E+03</pdfrwt>
<totfact> 0.11246088E+03</totfact>
</mgrwt>
</event>
<event>
 6      1 +1.8175624e-03 2.74040000e+02 7.81860800e-03 1.09898900e-01
        2 -1    0    0  501    0 +0.0000000000e+00 +0.0000000000e+00 +6.0078370116e+02 6.0078370117e+02 2.5500000000e-03 0.0000e+00 -1.0000e+00
       -2 -1    0    0    0  501 -0.0000000000e+00 -0.0000000000e+00 -3.1249984180e+01 3.1249984284e+01 2.5500000000e-03 0.0000e+00 1.0000e+00
      -13  1    1    2    0    0 +3.7565342083e+01 -7.8755834601e+01 +9.6648997946e+01 1.3021012394e+02 1.0566000000e-01 0.0000e+00 1.0000e+00
       13  1    1    2    0    0 -5.7307968088e+01 +6.5589368673e+01 +3.1025872218e+02 3.2225246988e+02 1.0566000000e-01 0.0000e+00 -1.0000e+00
      -13  1    1    2    0    0 -4.9365748743e+00 -2.7601533841e+01 +5.1047137624e+01 5.8241187020e+01 1.0566000000e-01 0.0000e+00 1.0000e+00
       13  1    1    2    0    0 +2.4679200879e+01 +4.0767999769e+01 +1.1157885923e+02 1.2132990461e+02 1.0566000000e-01 0.0000e+00 -1.0000e+00
<mgrwt>
<rscale>  0 0.27404001E+03</rscale>
<asrwt>0</asrwt>
<pdfrwt beam="1">  1        2 0.15019592E+00 0.27404001E+03</pdfrwt>
<pdfrwt beam="2">  1       -2 0.78124964E-02 0.27404001E+03</pdfrwt>
<totfact> 0.26620827E+03</totfact>
</mgrwt>
</event>
<event>
 6      1 +1.8175624e-03 4.36244700e+02 7.81860800e-03 1.03190500e-01
        1 -1    0    0  501    0 +0.0000000000e+00 +0.0000000000e+00 +2.8722941111e+02 2.8722941116e+02 5.0400000000e-03 0.0000e+00 -1.0000e+00
       -1 -1    0    0    0  501 -0.0000000000e+00 -0.0000000000e+00 -1.6564237519e+02 1.6564237526e+02 5.0400000000e-03 0.0000e+00 1.0000e+00
      -13  1    1    2    0    0 +7.8831443610e+01 +5.3922103454e+01 +5.1286045000e+01 1.0840783790e+02 1.0566000000e-01 0.0000e+00 -1.0000e+00
       13  1    1    2    0    0 +1.0479038728e+01 -3.3736403586e+01 +1.4800895369e+01 3.8301864802e+01 1.0566000000e-01 0.0000e+00 1.0000e+00
      -13  1    1    2    0    0 +7.3350390761e+00 +7.1959078773e+01 -8.5482759500e+01 1.1197868168e+02 1.0566000000e-01 0.0000e+00 1.0000e+00
       13  1    1    2    0    0 -9.6645521414e+01 -9.2144778641e+01 +1.4098285506e+02 1.9418340203e+02 1.0566000000e-01 0.0000e+00 -1.0000e+00
<mgrwt>
<rscale>  0 0.43624471E+03</rscale>
<asrwt>0</asrwt>
<pdfrwt beam="1">  1        1 0.71807352E-01 0.43624471E+03</pdfrwt>
<pdfrwt beam="2">  1       -1 0.41410594E-01 0.43624471E+03</pdfrwt>
<totfact> 0.28590685E+02</totfact>
</mgrwt>
</event>
<event>
 6      1 +1.8175624e-03 3.29313900e+02 7.81860800e-03 1.07144100e-01
       -1 -1    0    0    0  501 -0.0000000000e+00 +0.0000000000e+00 +1.4952933301e+02 1.4952933309e+02 5.0400000000e-03 0.0000e+00 1.0000e+00
        1 -1    0    0  501    0 +0.0000000000e+00 -0.0000000000e+00 -1.8131497221e+02 1.8131497228e+02 5.0400000000e-03 0.0000e+00 -1.0000e+00
      -13  1    1    2    0    0 -2.9001156480e+01 +3.0208170809e+01 +2.8443538230e+01 5.0622590726e+01 1.0566000000e-01 0.0000e+00 1.0000e+00
       13  1    1    2    0    0 -1.1509902680e+01 +5.3558320500e+01 -7.3547229388e+01 9.1707020828e+01 1.0566000000e-01 0.0000e+00 -1.0000e+00
      -13  1    1    2    0    0 +2.1033986428e+01 -1.3309198981e+02 +1.4078945441e+01 1.3547743062e+02 1.0566000000e-01 0.0000e+00 1.0000e+00
       13  1    1    2    0    0 +1.9477072732e+01 +4.9325498506e+01 -7.6089349036e-01 5.3037263202e+01 1.0566000000e-01 0.0000e+00 -1.0000e+00
<mgrwt>
<rscale>  0 0.32931387E+03</rscale>
<asrwt>0</asrwt>
<pdfrwt beam="1">  1        1 0.45328743E-01 0.32931387E+03</pdfrwt>
<pdfrwt beam="2">  1       -1 0.37382333E-01 0.32931387E+03</pdfrwt>
<totfact> 0.62614340E+02</totfact>
</mgrwt>
</event>
<event>
 6      1 +1.8175624e-03 2.14199000e+02 7.81860800e-03 1.13828300e-01
       -2 -1    0    0    0  501 -0.0000000000e+00 +0.0000000000e+00 +6.4959676132e+01 6.4959676182e+01 2.5500000000e-03 0.0000e+00 -1.0000e+00
        2 -1    0    0  501    0 +0.0000000000e+00 -0.0000000000e+00 -1.7657574952e+02 1.7657574954e+02 2.5500000000e-03 0.0000e+00 1.0000e+00
      -13  1    1    2    0    0 -1.8253805021e+01 -3.8464464339e+01 -2.0039040592e+00 4.2623270759e+01 1.0566000000e-01 0.0000e+00 -1.0000e+00
       13  1    1    2    0    0 +7.5456151497e+00 +4.9391004942e+01 -1.8123847538e+01 5.3149719574e+01 1.0566000000e-01 0.0000e+00 1.0000e+00
      -13  1    1    2    0    0 -4.8553707603e+01 +9.6371624146e-01 -2.1004094263e+01 5.2911004629e+01 1.0566000000e-01 0.0000e+00 -1.0000e+00
       13  1    1    2    0    0 +5.9261897474e+01 -1.1890256844e+01 -7.0484227531e+01 9.2851430763e+01 1.0566000000e-01 0.0000e+00 1.0000e+00
<mgrwt>
<rscale>  0 0.21419901E+03</rscale>
<asrwt>0</asrwt>
<pdfrwt beam="1">  1        2 0.44143936E-01 0.21419901E+03</pdfrwt>
<pdfrwt beam="2">  1       -2 0.16239919E-01 0.21419901E+03</pdfrwt>
<totfact> 0.33913041E+03</totfact>
</mgrwt>
</event>
<event>
 7      1 +1.8175624e-03 9.05098300e+01 7.81860800e-03 1.30162200e-01
       -1 -1    0    0    0  501 -0.0000000000e+00 +0.0000000000e+00 +2.2479652135e+01 2.2479652700e+01 5.0400000000e-03 0.0000e+00 1.0000e+00
        1 -1    0    0  501    0 +0.0000000000e+00 -0.0000000000e+00 -9.1104937940e+01 9.1104938080e+01 5.0400000000e-03 0.0000e+00 -1.0000e+00
       23  2    1    2    0    0 -5.3290705182e-15 -3.5527136788e-15 -6.8625285805e+01 1.1358459078e+02 9.0509830465e+01 0.0000e+00 0.0000e+00
      -13  1    3    3    0    0 +1.0795068008e+01 -8.0177661507e-01 +1.0342585582e+01 1.4971859590e+01 1.0566000000e-01 0.0000e+00 1.0000e+00
       13  1    3    3    0    0 -1.4108218462e+01 +2.9140373502e+00 -8.9416412587e+00 1.6955752838e+01 1.0566000000e-01 0.0000e+00 -1.0000e+00
      -13  1    3    3    0    0 -7.3496639834e+00 +1.6220840381e+01 -4.7447267088e+01 5.0679261454e+01 1.0566000000e-01 0.0000e+00 1.0000e+00
       13  1    3    3    0    0 +1.0662814438e+01 -1.8333101116e+01 -2.2578963040e+01 3.0977716899e+01 1.0566000000e-01 0.0000e+00 -1.0000e+00
<mgrwt>
<rscale>  0 0.90509830E+02</rscale>
<asrwt>0</asrwt>
<pdfrwt beam="1">  1        1 0.22776234E-01 0.90509830E+02</pdfrwt>
<pdfrwt beam="2">  1       -1 0.56199134E-02 0.90509830E+02</pdfrwt>
<totfact> 0.27998071E+04</totfact>
</mgrwt>
</event>
<event>
 6      1 +1.8175624e-03 2.66189900e+02 7.81860800e-03 1.10348000e-01
        2 -1    0    0  501    0 +0.0000000000e+00 +0.0000000000e+00 +2.6978757807e+02 2.6978757808e+02 2.5500000000e-03 0.0000e+00 1.0000e+00
       -2 -1    0    0    0  501 -0.0000000000e+00 -0.0000000000e+00 -6.5660059746e+01 6.5660059795e+01 2.5500000000e-03 0.0000e+00 -1.0000e+00
      -13  1    1    2    0    0 -5.7170723642e+01 -1.7688640498e+01 +8.9836564077e+00 6.0515261636e+01 1.0566000000e-01 0.0000e+00 -1.0000e+00
       13  1    1    2    0    0 +3.2770910129e+01 +2.8524979677e+01 +5.5004194350e+01 7.0093363284e+01 1.0566000000e-01 0.0000e+00 1.0000e+00
      -13  1    1    2    0    0 -1.1384834197e+01 -5.4846994063e+01 +1.3702267972e+02 1.4803051419e+02 1.0566000000e-01 0.0000e+00 1.0000e+00
       13  1    1    2    0    0 +3.5784647710e+01 +4.4010654884e+01 +3.1169878392e+00 5.6808498767e+01 1.0566000000e-01 0.0000e+00 -1.0000e+00
<mgrwt>
<rscale>  0 0.26618992E+03</rscale>
<asrwt>0</asrwt>
<pdfrwt beam="1">  1        2 0.67446894E-01 0.26618992E+03</pdfrwt>
<pdfrwt beam="2">  1       -2 0.16415015E-01 0.26618992E+03</pdfrwt>
<totfact> 0.21176664E+03</totfact>
</mgrwt>
</event>
<event>
 6      1 +1.8175624e-03 5.29908800e+02 7.81860800e-03 1.00625400e-01
        1 -1    0    0  501    0 +0.0000000000e+00 +0.0000000000e+00 +6.1170250767e+02 6.1170250769e+02 5.0400000000e-03 0.0000e+00 -1.0000e+00
       -1 -1    0    0    0  501 -0.0000000000e+00 -0.0000000000e+00 -1.1476301907e+02 1.1476301918e+02 5.0400000000e-03 0.0000e+00 1.0000e+00
      -13  1    1    2    0    0 -8.4839000044e+01 -2.2146958431e+02 +2.2230226692e+02 3.2506113539e+02 1.0566000000e-01 0.0000e+00 1.0000e+00
       13  1    1    2    0    0 +1.2915637051e+01 +1.4851147168e+02 +1.5706771999e+02 2.1654734062e+02 1.0566000000e-01 0.0000e+00 -1.0000e+00
      -13  1    1    2    0    0 +8.8781331555e+01 +5.0684842986e+01 +5.4437337457e+01 1.1582103874e+02 1.0566000000e-01 0.0000e+00 -1.0000e+00
       13  1    1    2    0    0 -1.6857968562e+01 +2.2273269638e+01 +6.3132164234e+01 6.9036012119e+01 1.0566000000e-01 0.0000e+00 1.0000e+00
<mgrwt>
<rscale>  0 0.52990877E+03</rscale>
<asrwt>0</asrwt>
<pdfrwt beam="1">  1        1 0.15292562E+00 0.52990877E+03</pdfrwt>
<pdfrwt beam="2">  1       -1 0.28690755E-01 0.52990877E+03</pdfrwt>
<totfact> 0.17424883E+02</totfact>
</mgrwt>
</event>
<event>
 6      1 +1.8175624e-03 3.50727600e+02 7.81860800e-03 1.06231700e-01
       -2 -1    0    0    0  501 -0.0000000000e+00 +0.0000000000e+00 +8.0893553686e+01 8.0893553726e+01 2.5500000000e-03 0.0000e+00 1.0000e+00
        2 -1    0    0  501    0 +0.0000000000e+00 -0.0000000000e+00 -3.8015966195e+02 3.8015966196e+02 2.5500000000e-03 0.0000e+00 -1.0000e+00
      -13  1    1    2    0    0 -1.4186541902e+02 -3.5576808301e-01 -6.6151627118e+01 1.5653105960e+02 1.0566000000e-01 0.0000e+00 1.0000e+00
       13  1    1    2    0    0 +7.7171644609e+01 -3.1537121558e+01 -7.9792852567e+01 1.1539914754e+02 1.0566000000e-01 0.0000e+00 -1.0000e+00
      -13  1    1    2    0    0 +7.9106748112e+01 +3.2273900195e+01 -8.9657242576e+01 1.2384633439e+02 1.0566000000e-01 0.0000e+00 1.0000e+00
       13  1    1    2    0    0 -1.4412973696e+01 -3.8101055350e-01 -6.3664386008e+01 6.5276674161e+01 1.0566000000e-01 0.0000e+00 -1.0000e+00
<mgrwt>
<rscale>  0 0.35072762E+03</rscale>
<asrwt>0</asrwt>
<pdfrwt beam="1">  1        2 0.95039911E-01 0.35072762E+03</pdfrwt>
<pdfrwt beam="2">  1       -2 0.20223389E-01 0.35072762E+03</pdfrwt>
<totfact> 0.10071119E+03</totfact>
</mgrwt>
</event>
<event>
 6      1 +1.8175624e-03 4.53728900e+02 7.81860800e-03 1.02661600e-01
       -1 -1    0    0    0  501 -0.0000000000e+00 +0.0000000000e+00 +8.3231012384e+01 8.3231012536e+01 5.0400000000e-03 0.0000e+00 1.0000e+00
        1 -1    0    0  501    0 +0.0000000000e+00 -0.0000000000e+00 -6.1836906077e+02 6.1836906079e+02 5.0400000000e-03 0.0000e+00 -1.0000e+00
      -13  1    1    2    0    0 +9.3768103360e+01 +2.1023125202e+01 -5.0535698308e+02 5.1441240315e+02 1.0566000000e-01 0.0000e+00 -1.0000e+00
       13  1    1    2    0    0 +7.1964880617e+00 +1.2750500585e+01 -3.9038962774e+00 1.5153094594e+01 1.0566000000e-01 0.0000e+00 1.0000e+00
      -13  1    1    2    0    0 -8.9907345044e+01 -6.0905082114e+01 +2.6714914983e+01 1.1183227426e+02 1.0566000000e-01 0.0000e+00 1.0000e+00
       13  1    1    2    0    0 -1.1057246378e+01 +2.7131456327e+01 -5.2592084017e+01 6.0202301328e+01 1.0566000000e-01 0.0000e+00 -1.0000e+00
<mgrwt>
<rscale>  0 0.45372892E+03</rscale>
<asrwt>0</asrwt>
<pdfrwt beam="1">  1        1 0.15459225E+00 0.45372892E+03</pdfrwt>
<pdfrwt beam="2">  1       -1 0.20807755E-01 0.45372892E+03</pdfrwt>
<totfact> 0.29601679E+02</totfact>
</mgrwt>
</event>
<event>
 6      1 +1.8175624e-03 2.27424000e+02 7.81860800e-03 1.12846600e-01
       -1 -1    0    0    0  501 -0.0000000000e+00 +0.0000000000e+00 +4.4814763295e+01 4.4814763578e+01 5.0400000000e-03 0.0000e+00 1.0000e+00
        1 -1    0    0  501    0 +0.0000000000e+00 -0.0000000000e+00 -2.8853024647e+02 2.8853024652e+02 5.0400000000e-03 0.0000e+00 -1.0000e+00
      -13  1    1    2    0    0 +1.7259182509e+01 -3.8848415898e+00 +1.6995639046e+01 2.4532311054e+01 1.0566000000e-01 0.0000e+00 1.0000e+00
       13  1    1    2    0    0 +4.7801215325e+01 -3.8525615260e+01 -1.6224506843e+02 1.7347233962e+02 1.0566000000e-01 0.0000e+00 -1.0000e+00
      -13  1    1    2    0    0 -1.5877566046e+01 +5.0716167716e+00 +2.6325621855e+00 1.6874831789e+01 1.0566000000e-01 0.0000e+00 1.0000e+00
       13  1    1    2    0    0 -4.9182831789e+01 +3.7338840078e+01 -1.0109861598e+02 1.1846552764e+02 1.0566000000e-01 0.0000e+00 -1.0000e+00
<mgrwt>
<rscale>  0 0.22742396E+03</rscale>
<asrwt>0</asrwt>
<pdfrwt beam="1">  1        1 0.72132556E-01 0.22742396E+03</pdfrwt>
<pdfrwt beam="2">  1       -1 0.11203692E-01 0.22742396E+03</pdfrwt>
<totfact> 0.24926896E+03</totfact>
</mgrwt>
</event>
<event>
 6      1 +1.8175624e-03 6.65158400e+02 7.81860800e-03 9.77874400e-02
        2 -1    0    0  501    0 +0.0000000000e+00 +0.0000000000e+00 +3.9572402856e+02 3.9572402856e+02 2.5500000000e-03 0.0000e+00 -1.0000e+00
       -2 -1    0    0    0  501 -0.0000000000e+00 -0.0000000000e+00 -2.7951028439e+02 2.7951028440e+02 2.5500000000e-03 0.0000e+00 1.0000e+00
      -13  1    1    2    0    0 +4.7165315637e+00 -1.2988618081e+02 -1.6573431249e+01 1.3102425509e+02 1.0566000000e-01 0.0000e+00 1.0000e+00
       13  1    1    2    0    0 +6.3281492628e+01 -5.0150905511e+01 -7.5512632927e+00 8.1096814821e+01 1.0566000000e-01 0.0000e+00 -1.0000e+00
      -13  1    1    2    0    0 +1.1582068647e+01 +2.9840215937e+02 +9.9115676381e+01 3.1464570790e+02 1.0566000000e-01 0.0000e+00 1.0000e+00
       13  1    1    2    0    0 -7.9580092838e+01 -1.1836507305e+02 +4.1222762329e+01 1.4846753515e+02 1.0566000000e-01 0.0000e+00 -1.0000e+00
<mgrwt>
<rscale>  0 0.66515843E+03</rscale>
<asrwt>0</asrwt>
<pdfrwt beam="1">  1        2 0.98931006E-01 0.66515843E+03</pdfrwt>
<pdfrwt beam="2">  1       -2 0.69877572E-01 0.66515843E+03</pdfrwt>
<totfact> 0.86518869E+01</totfact>
</mgrwt>
</event>
<event>
 6      1 +1.8175624e-03 4.08149000e+02 7.81860800e-03 1.04099400e-01
       -2 -1    0    0    0  501 -0.0000000000e+00 +0.0000000000e+00 +3.0500606750e+01 3.0500606857e+01 2.5500000000e-03 0.0000e+00 1.0000e+00
        2 -1    0    0  501    0 +0.0000000000e+00 -0.0000000000e+00 -1.3654283433e+03 1.3654283433e+03 2.5500000000e-03 0.0000e+00 -1.0000e+00
      -13  1    1    2    0    0 -3.5993797535e+01 -1.1091036402e+02 -1.9967525121e+02 2.3122906266e+02 1.0566000000e-01 0.0000e+00 1.0000e+00
       13  1    1    2    0    0 -6.6720177173e+01 +2.6429530860e+01 -2.7170078233e+02 2.8101855531e+02 1.0566000000e-01 0.0000e+00 -1.0000e+00
      -13  1    1    2    0    0 +1.2326730076e+02 +6.6538002096e+01 -8.2280458865e+02 8.3464335822e+02 1.0566000000e-01 0.0000e+00 1.0000e+00
       13  1    1    2    0    0 -2.0553326053e+01 +1.7942831070e+01 -4.0747114383e+01 4.9037973992e+01 1.0566000000e-01 0.0000e+00 -1.0000e+00
<mgrwt>
<rscale>  0 0.40814896E+03</rscale>
<asrwt>0</asrwt>
<pdfrwt beam="1">  1        2 0.34135688E+00 0.40814896E+03</pdfrwt>
<pdfrwt beam="2">  1       -2 0.76251563E-02 0.40814896E+03</pdfrwt>
<totfact> 0.56886609E+02</totfact>
</mgrwt>
</event>
<event>
 6      1 +1.8175624e-03 4.60093600e+02 7.81860800e-03 1.02475400e-01
       -2 -1    0    0    0  501 -0.0000000000e+00 +0.0000000000e+00 +6.9222426911e+01 6.9222426958e+01 2.5500000000e-03 0.0000e+00 -1.0000e+00
        2 -1    0    0  501    0 +0.0000000000e+00 -0.0000000000e+00 -7.6451422378e+02 7.6451422378e+02 2.5500000000e-03 0.0000e+00 1.0000e+00
      -13  1    1    2    0    0 +3.8693500982e+01 +8.6144977683e+01 -4.9567190528e+01 1.0665393448e+02 1.0566000000e-01 0.0000e+00 -1.0000e+00
       13  1    1    2    0    0 -1.2839752117e+02 -1.4027770530e+02 -3.5861748771e+02 4.0591904575e+02 1.0566000000e-01 0.0000e+00 1.0000e+00
      -13  1    1    2    0    0 +6.8897406709e+01 +3.5576083877e+01 -2.8244690138e+02 2.9289720664e+02 1.0566000000e-01 0.0000e+00 -1.0000e+00
       13  1    1    2    0    0 +2.0806613480e+01 +1.8556643738e+01 -4.6602172542e+00 2.8266463879e+01 1.0566000000e-01 0.0000e+00 1.0000e+00
<mgrwt>
<rscale>  0 0.46009360E+03</rscale>
<asrwt>0</asrwt>
<pdfrwt beam="1">  1        2 0.19112853E+00 0.46009360E+03</pdfrwt>
<pdfrwt beam="2">  1       -2 0.17305609E-01 0.46009360E+03</pdfrwt>
<totfact> 0.50293447E+02</totfact>
</mgrwt>
</event>
<event>
 6      1 +1.8175624e-03 2.74400200e+02 7.81860800e-03 1.09878700e-01
       -2 -1    0    0    0  501 -0.0000000000e+00 +0.0000000000e+00 +2.6311704964e+01 2.6311705088e+01 2.5500000000e-03 0.0000e+00 1.0000e+00
        2 -1    0    0  501    0 +0.0000000000e+00 -0.0000000000e+00 -7.1541781560e+02 7.1541781560e+02 2.5500000000e-03 0.0000e+00 -1.0000e+00
      -13  1    1    2    0    0 +2.4289139115e+01 +3.6675390127e+01 -1.5903975694e+02 1.6501121772e+02 1.0566000000e-01 0.0000e+00 -1.0000e+00
       13  1    1    2    0    0 -4.1047010628e+01 -1.9441775691e+01 -1.6309620391e+01 4.8258207642e+01 1.0566000000e-01 0.0000e+00 1.0000e+00
      -13  1    1    2    0    0 -3.8655150341e+01 -4.4917900266e+01 -3.0513960712e+02 3.1084084257e+02 1.0566000000e-01 0.0000e+00 1.0000e+00
       13  1    1    2    0    0 +5.5413021854e+01 +2.7684285830e+01 -2.0861712618e+02 2.1761925276e+02 1.0566000000e-01 0.0000e+00 -1.0000e+00
<mgrwt>
<rscale>  0 0.27440016E+03</rscale>
<asrwt>0</asrwt>
<pdfrwt beam="1">  1        2 0.17885439E+00 0.27440016E+03</pdfrwt>
<pdfrwt beam="2">  1       -2 0.65779286E-02 0.27440016E+03</pdfrwt>
<totfact> 0.26933681E+03</totfact>
</mgrwt>
</event>
<event>
 6      1 +1.8175624e-03 2.67897000e+02 7.81860800e-03 1.10248900e-01
        2 -1    0    0  501    0 +0.0000000000e+00 +0.0000000000e+00 +9.5147969351e+01 9.5147969385e+01 2.5500000000e-03 0.0000e+00 -1.0000e+00
       -2 -1    0    0    0  501 -0.0000000000e+00 -0.0000000000e+00 -1.8857158536e+02 1.8857158538e+02 2.5500000000e-03 0.0000e+00 1.0000e+00
      -13  1    1    2    0    0 -5.3003100308e+01 -3.0986407208e+01 -2.6138143755e+01 6.6728553085e+01 1.0566000000e-01 0.0000e+00 -1.0000e+00
       13  1    1    2    0    0 +4.8899815254e+01 -4.1909008421e+01 -3.4339772256e+01 7.2984848026e+01 1.0566000000e-01 0.0000e+00 1.0000e+00
      -13  1    1    2    0    0 -1.6237594258e+01 +1.0266030645e+02 -2.7792117903e+01 1.0758815441e+02 1.0566000000e-01 0.0000e+00 1.0000e+00
       13  1    1    2    0    0 +2.0340879311e+01 -2.9764890818e+01 -5.1535820945e+00 3.6417999245e+01 1.0566000000e-01 0.0000e+00 -1.0000e+00
<mgrwt>
<rscale>  0 0.26789702E+03</rscale>
<asrwt>0</asrwt>
<pdfrwt beam="1">  1        2 0.23786993E-01 0.26789702E+03</pdfrwt>
<pdfrwt beam="2">  1       -2 0.47142896E-01 0.26789702E+03</pdfrwt>
<totfact> 0.98346271E+02</totfact>
</mgrwt>
</event>
<event>
 6      1 +1.8175624e-03 6.82197300e+02 7.81860800e-03 9.74817100e-02
       -2 -1    0    0    0  501 -0.0000000000e+00 +0.0000000000e+00 +2.2324953227e+02 2.2324953228e+02 2.5500000000e-03 0.0000e+00 1.0000e+00
        2 -1    0    0  501    0 +0.0000000000e+00 -0.0000000000e+00 -5.2115806575e+02 5.2115806575e+02 2.5500000000e-03 0.0000e+00 -1.0000e+00
      -13  1    1    2    0    0 +1.3030211991e+02 +4.1315582168e+01 -1.0595834231e+02 1.7295317647e+02 1.0566000000e-01 0.0000e+00 1.0000e+00
       13  1    1    2    0    0 +4.8623035338e+00 +1.7485904678e+01 +5.3000831817e-01 1.8157393285e+01 1.0566000000e-01 0.0000e+00 -1.0000e+00
      -13  1    1    2    0    0 +1.5340387438e+02 -1.2261409735e+02 +7.3790851410e+00 1.9652335130e+02 1.0566000000e-01 0.0000e+00 1.0000e+00
       13  1    1    2    0    0 -2.8856829782e+02 +6.3812610500e+01 -1.9985928463e+02 3.5677367698e+02 1.0566000000e-01 0.0000e+00 -1.0000e+00
<mgrwt>
<rscale>  0 0.68219732E+03</rscale>
<asrwt>0</asrwt>
<pdfrwt beam="1">  1        2 0.13028951E+00 0.68219732E+03</pdfrwt>
<pdfrwt beam="2">  1       -2 0.55812384E-01 0.68219732E+03</pdfrwt>
<totfact> 0.97875900E+01</totfact>
</mgrwt>
</event>
<event>
 6      1 +1.8175624e-03 9.83300200e+02 7.81860800e-03 9.32705300e-02
       -2 -1    0    0    0  501 -0.0000000000e+00 +0.0000000000e+00 +1.6717904400e+02 1.6717904402e+02 2.5500000000e-03 0.0000e+00 1.0000e+00
        2 -1    0    0  501    0 +0.0000000000e+00 -0.0000000000e+00 -1.4458738366e+03 1.4458738366e+03 2.5500000000e-03 0.0000e+00 -1.0000e+00
      -13  1    1    2    0    0 -8.3671601729e+01 +2.3268545024e+02 -2.4758543461e+02 3.4991715346e+02 1.0566000000e-01 0.0000e+00 1.0000e+00
       13  1    1    2    0    0 +8.1646891208e+01 -3.7565544122e+02 -1.0197521350e+03 1.0898062458e+03 1.0566000000e-01 0.0000e+00 -1.0000e+00
      -13  1    1    2    0    0 +2.0965467337e+01 +8.7958612580e+01 -5.0152833787e+01 1.0340012693e+02 1.0566000000e-01 0.0000e+00 -1.0000e+00
       13  1    1    2    0    0 -1.8940756817e+01 +5.5011378400e+01 +3.8795610846e+01 6.9929354403e+01 1.0566000000e-01 0.0000e+00 1.0000e+00
<mgrwt>
<rscale>  0 0.98330017E+03</rscale>
<asrwt>0</asrwt>
<pdfrwt beam="1">  1        2 0.36146842E+00 0.98330017E+03</pdfrwt>
<pdfrwt beam="2">  1       -2 0.41794765E-01 0.98330017E+03</pdfrwt>
<totfact> 0.23306039E+01</totfact>
</mgrwt>
</event>
<event>
 6      1 +1.8175624e-03 1.86896100e+02 7.81860800e-03 1.16129100e-01
       -2 -1    0    0    0  501 -0.0000000000e+00 +0.0000000000e+00 +1.4151260377e+01 1.4151260607e+01 2.5500000000e-03 0.0000e+00 -1.0000e+00
        2 -1    0    0  501    0 +0.0000000000e+00 -0.0000000000e+00 -6.1708557733e+02 6.1708557734e+02 2.5500000000e-03 0.0000e+00 1.0000e+00
      -13  1    1    2    0    0 +3.2261043092e+01 +2.9240650118e+01 -1.0395357175e+02 1.1270380102e+02 1.0566000000e-01 0.0000e+00 -1.0000e+00
       13  1    1    2    0    0 +3.1548811251e-01 -3.7097121046e+01 -5.6150282385e+01 6.7299043816e+01 1.0566000000e-01 0.0000e+00 1.0000e+00
      -13  1    1    2    0    0 +2.6113908153e+01 +3.2610814440e+00 -1.0106033357e+02 1.0443070926e+02 1.0566000000e-01 0.0000e+00 -1.0000e+00
       13  1    1    2    0    0 -5.8690439358e+01 +4.5953894839e+00 -3.4177012924e+02 3.4680328384e+02 1.0566000000e-01 0.0000e+00 1.0000e+00
<mgrwt>
<rscale>  0 0.18689611E+03</rscale>
<asrwt>0</asrwt>
<pdfrwt beam="1">  1        2 0.15427130E+00 0.18689611E+03</pdfrwt>
<pdfrwt beam="2">  1       -2 0.35378172E-02 0.18689611E+03</pdfrwt>
<totfact> 0.84965944E+03</totfact>
</mgrwt>
</event>
<event>
 6      1 +1.8175624e-03 5.72342600e+02 7.81860800e-03 9.96450800e-02
       -1 -1    0    0    0  501 -0.0000000000e+00 +0.0000000000e+00 +1.0484137938e+02 1.0484137950e+02 5.0400000000e-03 0.0000e+00 1.0000e+00
        1 -1    0    0  501    0 +0.0000000000e+00 -0.0000000000e+00 -7.8112302309e+02 7.8112302310e+02 5.0400000000e-03 0.0000e+00 -1.0000e+00
      -13  1    1    2    0    0 +2.0864581980e+01 +1.9261817992e+02 -1.1704476854e+02 2.2635499337e+02 1.0566000000e-01 0.0000e+00 1.0000e+00
       13  1    1    2    0    0 -4.9211362924e+01 -5.6974163749e+00 -4.2005454113e+01 6.4951429033e+01 1.0566000000e-01 0.0000e+00 1.0000e+00
      -13  1    1    2    0    0 +3.2992531423e+01 -8.2391240072e+01 -2.6107431430e+01 9.2511797681e+01 1.0566000000e-01 0.0000e+00 -1.0000e+00
       13  1    1    2    0    0 -4.6457504778e+00 -1.0452952347e+02 -4.9112398962e+02 5.0214618252e+02 1.0566000000e-01 0.0000e+00 -1.0000e+00
<mgrwt>
<rscale>  0 0.57234261E+03</rscale>
<asrwt>0</asrwt>
<pdfrwt beam="1">  1        1 0.19528074E+00 0.57234261E+03</pdfrwt>
<pdfrwt beam="2">  1       -1 0.26210347E-01 0.57234261E+03</pdfrwt>
<totfact> 0.12723522E+02</totfact>
</mgrwt>
</event>
<event>
 6      1 +1.8175624e-03 3.31118300e+02 7.81860800e-03 1.07064300e-01
        2 -1    0    0  501    0 +0.0000000000e+00 +0.0000000000e+00 +1.1491802333e+03 1.1491802334e+03 2.5500000000e-03 0.0000e+00 1.0000e+00
       -2 -1    0    0    0  501 -0.0000000000e+00 -0.0000000000e+00 -2.3851640389e+01 2.3851640525e+01 2.5500000000e-03 0.0000e+00 -1.0000e+00
      -13  1    1    2    0    0 -2.2236118883e+01 -2.2411985182e+01 +1.2971319651e+01 3.4132218801e+01 1.0566000000e-01 0.0000e+00 -1.0000e+00
       13  1    1    2    0    0 +3.3409393511e+01 +2.2472585606e+01 +2.2070511285e+02 2.2434786087e+02 1.0566000000e-01 0.0000e+00 1.0000e+00
      -13  1    1    2    0    0 +6.1876251995e+01 -7.3296073363e+01 +5.2001229650e+02 5.2878519704e+02 1.0566000000e-01 0.0000e+00 -1.0000e+00
       13  1    1    2    0    0 -7.3049526623e+01 +7.3235472939e+01 +3.7163986396e+02 3.8576659716e+02 1.0566000000e-01 0.0000e+00 1.0000e+00
<mgrwt>
<rscale>  0 0.33111831E+03</rscale>
<asrwt>0</asrwt>
<pdfrwt beam="1">  1        2 0.28729504E+00 0.33111831E+03</pdfrwt>
<pdfrwt beam="2">  1       -2 0.59629104E-02 0.33111831E+03</pdfrwt>
<totfact> 0.12970763E+03</totfact>
</mgrwt>
</event>
<event>
 6      1 +1.8175624e-03 2.31407000e+02 7.81860800e-03 1.12565300e-01
        1 -1    0    0  501    0 +0.0000000000e+00 +0.0000000000e+00 +1.0671520873e+02 1.0671520885e+02 5.0400000000e-03 0.0000e+00 1.0000e+00
       -1 -1    0    0    0  501 -0.0000000000e+00 -0.0000000000e+00 -1.2544887924e+02 1.2544887934e+02 5.0400000000e-03 0.0000e+00 -1.0000e+00
      -13  1    1    2    0    0 -3.6901781245e+01 -1.1575775362e+01 +2.9420887849e+00 3.8786686953e+01 1.0566000000e-01 0.0000e+00 -1.0000e+00
       13  1    1    2    0    0 -6.0514495317e+01 -3.5837964847e+00 +3.9161719628e+01 7.2169932721e+01 1.0566000000e-01 0.0000e+00 1.0000e+00
      -13  1    1    2    0    0 +3.5616605558e+01 +2.3124613608e+01 -2.6629221521e+01 5.0124015689e+01 1.0566000000e-01 0.0000e+00 -1.0000e+00
       13  1    1    2    0    0 +6.1799671004e+01 -7.9650417616e+00 -3.4208257400e+01 7.1083452820e+01 1.0566000000e-01 0.0000e+00 1.0000e+00
<mgrwt>
<rscale>  0 0.23140703E+03</rscale>
<asrwt>0</asrwt>
<pdfrwt beam="1">  1        1 0.26678802E-01 0.23140703E+03</pdfrwt>
<pdfrwt beam="2">  1       -1 0.31362220E-01 0.23140703E+03</pdfrwt>
<totfact> 0.16569762E+03</totfact>
</mgrwt>
</event>
<event>
 6      1 +1.8175624e-03 3.14802300e+02 7.81860800e-03 1.07806700e-01
        2 -1    0    0  501    0 +0.0000000000e+00 +0.0000000000e+00 +1.6840916489e+02 1.6840916491e+02 2.5500000000e-03 0.0000e+00 -1.0000e+00
       -2 -1    0    0    0  501 -0.0000000000e+00 -0.0000000000e+00 -1.4711262796e+02 1.4711262798e+02 2.5500000000e-03 0.0000e+00 1.0000e+00
      -13  1    1    2    0    0 -2.7679978710e+01 -2.1284303710e+01 -5.0651060593e+01 6.1520272342e+01 1.0566000000e-01 0.0000e+00 1.0000e+00
       13  1    1    2    0    0 +5.7521487189e+01 -1.2812265527e+01 -1.5464204436e+00 5.8951490367e+01 1.0566000000e-01 0.0000e+00 -1.0000e+00
      -13  1    1    2    0    0 -4.4313830695e+01 +5.3804603695e+01 -3.9038595318e+01 7.9891639476e+01 1.0566000000e-01 0.0000e+00 1.0000e+00
       13  1    1    2    0    0 +1.4472322216e+01 -1.9708034459e+01 +1.1253261328e+02 1.1515839070e+02 1.0566000000e-01 0.0000e+00 -1.0000e+00
<mgrwt>
<rscale>  0 0.31480225E+03</rscale>
<asrwt>0</asrwt>
<pdfrwt beam="1">  1        2 0.42102291E-01 0.31480225E+03</pdfrwt>
<pdfrwt beam="2">  1       -2 0.36778157E-01 0.31480225E+03</pdfrwt>
<totfact> 0.84794564E+02</totfact>
</mgrwt>
</event>
<event>
 6      1 +1.8175624e-03 4.19327600e+02 7.81860800e-03 1.03728500e-01
        3 -1    0    0  501    0 +0.0000000000e+00 +0.0000000000e+00 +1.8873327281e+02 1.8873329983e+02 1.0100000000e-01 0.0000e+00 -1.0000e+00
       -3 -1    0    0    0  501 -0.0000000000e+00 -0.0000000000e+00 -2.3291546816e+02 2.3291549005e+02 1.0100000000e-01 0.0000e+00 1.0000e+00
      -13  1    1    2    0    0 +9.5761438188e+01 -7.0586389145e+01 -6.6465108231e+00 1.1915065525e+02 1.0566000000e-01 0.0000e+00 1.0000e+00
       13  1    1    2    0    0 +3.8632832374e+01 +5.5259289447e+00 -2.1998692800e-01 3.9026800871e+01 1.0566000000e-01 0.0000e+00 1.0000e+00
      -13  1    1    2    0    0 -6.4337882338e+01 -2.4319442146e+01 +7.6373085944e+01 1.0277965650e+02 1.0566000000e-01 0.0000e+00 -1.0000e+00
       13  1    1    2    0    0 -7.0056388224e+01 +8.9379902346e+01 -1.1368878354e+02 1.6069167726e+02 1.0566000000e-01 0.0000e+00 -1.0000e+00
<mgrwt>
<rscale>  0 0.41932760E+03</rscale>
<asrwt>0</asrwt>
<pdfrwt beam="1">  1        3 0.47183324E-01 0.41932760E+03</pdfrwt>
<pdfrwt beam="2">  1       -3 0.58228873E-01 0.41932760E+03</pdfrwt>
<totfact> 0.33419728E+01</totfact>
</mgrwt>
</event>
<event>
 6      1 +1.8175624e-03 2.29148500e+02 7.81860800e-03 1.12724000e-01
       -2 -1    0    0    0  501 -0.0000000000e+00 +0.0000000000e+00 +1.5254043821e+01 1.5254044034e+01 2.5500000000e-03 0.0000e+00 1.0000e+00
        2 -1    0    0  501    0 +0.0000000000e+00 -0.0000000000e+00 -8.6057591557e+02 8.6057591558e+02 2.5500000000e-03 0.0000e+00 -1.0000e+00
      -13  1    1    2    0    0 +2.2251832019e+01 +1.1894859726e+01 -1.2185180058e+01 2.8020019507e+01 1.0566000000e-01 0.0000e+00 1.0000e+00
       13  1    1    2    0    0 +4.8958110256e+01 -9.7271829346e+00 -2.8644952033e+02 2.9076597722e+02 1.0566000000e-01 0.0000e+00 -1.0000e+00
      -13  1    1    2    0    0 -3.3088294426e+01 +3.8766424267e+01 -2.6491363816e+02 2.6977197358e+02 1.0566000000e-01 0.0000e+00 1.0000e+00
       13  1    1    2    0    0 -3.8121647848e+01 -4.0934101059e+01 -2.8177353320e+02 2.8727198931e+02 1.0566000000e-01 0.0000e+00 -1.0000e+00
<mgrwt>
<rscale>  0 0.22914854E+03</rscale>
<asrwt>0</asrwt>
<pdfrwt beam="1">  1        2 0.21514382E+00 0.22914854E+03</pdfrwt>
<pdfrwt beam="2">  1       -2 0.38135139E-02 0.22914854E+03</pdfrwt>
<totfact> 0.45594970E+03</totfact>
</mgrwt>
</event>
<event>
 6      1 +1.8175624e-03 2.06089300e+02 7.81860800e-03 1.14470100e-01
       -2 -1    0    0    0  501 -0.0000000000e+00 +0.0000000000e+00 +1.2880743235e+02 1.2880743238e+02 2.5500000000e-03 0.0000e+00 -1.0000e+00
        2 -1    0    0  501    0 +0.0000000000e+00 -0.0000000000e+00 -8.2434700892e+01 8.2434700932e+01 2.5500000000e-03 0.0000e+00 1.0000e+00
      -13  1    1    2    0    0 -7.0078279777e+01 -1.1511826643e+01 +5.9091797168e+01 9.2386898994e+01 1.0566000000e-01 0.0000e+00 -1.0000e+00
       13  1    1    2    0    0 +3.5590961984e+00 -2.9882635958e+01 -1.7675157071e+01 3.4900736942e+01 1.0566000000e-01 0.0000e+00 1.0000e+00
      -13  1    1    2    0    0 +3.1057723731e+01 +2.1960304592e+01 +1.7140371451e+01 4.1720986070e+01 1.0566000000e-01 0.0000e+00 -1.0000e+00
       13  1    1    2    0    0 +3.5461459847e+01 +1.9434158009e+01 -1.2184280085e+01 4.2233511306e+01 1.0566000000e-01 0.0000e+00 1.0000e+00
<mgrwt>
<rscale>  0 0.20608932E+03</rscale>
<asrwt>0</asrwt>
<pdfrwt beam="1">  1        2 0.20608675E-01 0.20608932E+03</pdfrwt>
<pdfrwt beam="2">  1       -2 0.32201858E-01 0.20608932E+03</pdfrwt>
<totfact> 0.23738108E+03</totfact>
</mgrwt>
</event>
<event>
 6      1 +1.8175624e-03 2.20622300e+02 7.81860800e-03 1.13342000e-01
        1 -1    0    0  501    0 +0.0000000000e+00 +0.0000000000e+00 +9.6129437182e+01 9.6129437315e+01 5.0400000000e-03 0.0000e+00 1.0000e+00
       -1 -1    0    0    0  501 -0.0000000000e+00 -0.0000000000e+00 -1.2658509011e+02 1.2658509021e+02 5.0400000000e-03 0.0000e+00 -1.0000e+00
      -13  1    1    2    0    0 -2.6523910697e+01 +2.9138226158e+01 -1.8605110272e+01 4.3574251050e+01 1.0566000000e-01 0.0000e+00 1.0000e+00
       13  1    1    2    0    0 +5.2095012475e+01 -3.3611476850e+01 -5.4648067890e+01 8.2644081391e+01 1.0566000000e-01 0.0000e+00 -1.0000e+00
      -13  1    1    2    0    0 -4.9935306860e+01 -1.0925248814e+01 +8.7046662139e+00 5.1852466777e+01 1.0566000000e-01 0.0000e+00 -1.0000e+00
       13  1    1    2    0    0 +2.4364205082e+01 +1.5398499506e+01 +3.4092859025e+01 4.4643728303e+01 1.0566000000e-01 0.0000e+00 1.0000e+00
<mgrwt>
<rscale>  0 0.22062233E+03</rscale>
<asrwt>0</asrwt>
<pdfrwt beam="1">  1        1 0.24032359E-01 0.22062233E+03</pdfrwt>
<pdfrwt beam="2">  1       -1 0.31646272E-01 0.22062233E+03</pdfrwt>
<totfact> 0.18611970E+03</totfact>
</mgrwt>
</event>
<event>
 6      1 +1.8175624e-03 4.31816800e+02 7.81860800e-03 1.03328800e-01
       -2 -1    0    0    0  501 -0.0000000000e+00 +0.0000000000e+00 +5.1459143890e+01 5.1459143953e+01 2.5500000000e-03 0.0000e+00 1.0000e+00
        2 -1    0    0  501    0 +0.0000000000e+00 -0.0000000000e+00 -9.0589220460e+02 9.0589220460e+02 2.5500000000e-03 0.0000e+00 -1.0000e+00
      -13  1    1    2    0    0 +8.1528717568e+00 +5.2980061556e+01 -1.1989743005e+02 1.3133453901e+02 1.0566000000e-01 0.0000e+00 -1.0000e+00
       13  1    1    2    0    0 +3.7777338590e+01 -3.4440043455e+01 -1.6831816182e+02 1.7590980265e+02 1.0566000000e-01 0.0000e+00 1.0000e+00
      -13  1    1    2    0    0 +1.3376626542e+02 -3.6165178919e+01 -2.3186421908e+02 2.7011545898e+02 1.0566000000e-01 0.0000e+00 1.0000e+00
       13  1    1    2    0    0 -1.7969647577e+02 +1.7625160818e+01 -3.3435324976e+02 3.7999154791e+02 1.0566000000e-01 0.0000e+00 -1.0000e+00
<mgrwt>
<rscale>  0 0.43181680E+03</rscale>
<asrwt>0</asrwt>
<pdfrwt beam="1">  1        2 0.22647300E+00 0.43181680E+03</pdfrwt>
<pdfrwt beam="2">  1       -2 0.12864789E-01 0.43181680E+03</pdfrwt>
<totfact> 0.61591357E+02</totfact>
</mgrwt>
</event>
<event>
 6      1 +1.8175624e-03 2.67868700e+02 7.81860800e-03 1.10250600e-01
       -2 -1    0    0    0  501 -0.0000000000e+00 +0.0000000000e+00 +1.6759451368e+02 1.6759451370e+02 2.5500000000e-03 0.0000e+00 1.0000e+00
        2 -1    0    0  501    0 +0.0000000000e+00 -0.0000000000e+00 -1.0703460160e+02 1.0703460163e+02 2.5500000000e-03 0.0000e+00 -1.0000e+00
      -13  1    1    2    0    0 -7.3377059698e+01 +8.8389955573e+01 +5.1972212186e+01 1.2608766450e+02 1.0566000000e-01 0.0000e+00 1.0000e+00
       13  1    1    2    0    0 +7.3670113840e+01 -2.9824089099e+01 +2.2954177556e+00 7.9511270085e+01 1.0566000000e-01 0.0000e+00 -1.0000e+00
      -13  1    1    2    0    0 -1.4467363999e+01 -4.1732057655e+01 -4.7228934666e+00 4.4420559924e+01 1.0566000000e-01 0.0000e+00 1.0000e+00
       13  1    1    2    0    0 +1.4174309858e+01 -1.6833808819e+01 +1.1015175599e+01 2.4609620818e+01 1.0566000000e-01 0.0000e+00 -1.0000e+00
<mgrwt>
<rscale>  0 0.26786871E+03</rscale>
<asrwt>0</asrwt>
<pdfrwt beam="1">  1        2 0.26758651E-01 0.26786871E+03</pdfrwt>
<pdfrwt beam="2">  1       -2 0.41898628E-01 0.26786871E+03</pdfrwt>
<totfact> 0.10852065E+03</totfact>
</mgrwt>
</event>
<event>
 6      1 +1.8175624e-03 1.71022400e+02 7.81860800e-03 1.17678600e-01
       -3 -1    0    0    0  501 -0.0000000000e+00 +0.0000000000e+00 +8.6979182022e+01 8.6979240662e+01 1.0100000000e-01 0.0000e+00 1.0000e+00
        3 -1    0    0  501    0 +0.0000000000e+00 -0.0000000000e+00 -8.4067867642e+01 8.4067928313e+01 1.0100000000e-01 0.0000e+00 -1.0000e+00
      -13  1    1    2    0    0 +3.4616189020e+01 -4.1024211461e+00 -1.8496825538e+01 3.9462059254e+01 1.0566000000e-01 0.0000e+00 1.0000e+00
       13  1    1    2    0    0 +1.1644676194e+01 -2.6829156836e+01 -6.0271882202e+00 2.9862021065e+01 1.0566000000e-01 0.0000e+00 -1.0000e+00
      -13  1    1    2    0    0 -5.4571555350e+00 +2.1090361181e+01 +4.9660103577e+01 5.4228414439e+01 1.0566000000e-01 0.0000e+00 1.0000e+00
       13  1    1    2    0    0 -4.0803709679e+01 +9.8412168019e+00 -2.2224775439e+01 4.7494674218e+01 1.0566000000e-01 0.0000e+00 -1.0000e+00
<mgrwt>
<rscale>  0 0.17102239E+03</rscale>
<asrwt>0</asrwt>
<pdfrwt beam="1">  1        3 0.21016982E-01 0.17102239E+03</pdfrwt>
<pdfrwt beam="2">  1       -3 0.21744810E-01 0.17102239E+03</pdfrwt>
<totfact> 0.94854548E+02</totfact>
</mgrwt>
</event>
<event>
 6      1 +1.8175624e-03 4.83760100e+02 7.81860800e-03 1.01810700e-01
        2 -1    0    0  501    0 +0.0000000000e+00 +0.0000000000e+00 +5.7304048749e+02 5.7304048749e+02 2.5500000000e-03 0.0000e+00 1.0000e+00
       -2 -1    0    0    0  501 -0.0000000000e+00 -0.0000000000e+00 -1.0209741229e+02 1.0209741232e+02 2.5500000000e-03 0.0000e+00 -1.0000e+00
      -13  1    1    2    0    0 -3.5698213454e+00 +1.2869662233e+02 -3.1389822003e+00 1.2878442684e+02 1.0566000000e-01 0.0000e+00 -1.0000e+00
       13  1    1    2    0    0 -5.8545848057e+01 +2.5946680318e+01 +3.6587496254e+01 7.3752983603e+01 1.0566000000e-01 0.0000e+00 1.0000e+00
      -13  1    1    2    0    0 +2.7081250642e+01 -8.0658185661e+01 +1.3800799809e+02 1.6212759096e+02 1.0566000000e-01 0.0000e+00 -1.0000e+00
       13  1    1    2    0    0 +3.5034418760e+01 -7.3985116989e+01 +2.9948656305e+02 3.1047289841e+02 1.0566000000e-01 0.0000e+00 1.0000e+00
<mgrwt>
<rscale>  0 0.48376007E+03</rscale>
<asrwt>0</asrwt>
<pdfrwt beam="1">  1        2 0.14326012E+00 0.48376007E+03</pdfrwt>
<pdfrwt beam="2">  1       -2 0.25524353E-01 0.48376007E+03</pdfrwt>
<totfact> 0.39342810E+02</totfact>
</mgrwt>
</event>
<event>
 6      1 +1.8175624e-03 2.14371300e+02 7.81860800e-03 1.13815000e-01
        2 -1    0    0  501    0 +0.0000000000e+00 +0.0000000000e+00 +5.4826051207e+02 5.4826051207e+02 2.5500000000e-03 0.0000e+00 -1.0000e+00
       -2 -1    0    0    0  501 -0.0000000000e+00 -0.0000000000e+00 -2.0954938773e+01 2.0954938928e+01 2.5500000000e-03 0.0000e+00 1.0000e+00
      -13  1    1    2    0    0 -1.2149796295e+01 -3.2398845416e+01 +1.8767253621e+02 1.9083577953e+02 1.0566000000e-01 0.0000e+00 -1.0000e+00
       13  1    1    2    0    0 +1.9442792029e+01 +9.4013699392e+01 +1.8913507691e+02 2.1210536608e+02 1.0566000000e-01 0.0000e+00 1.0000e+00
      -13  1    1    2    0    0 +4.5486517058e+00 -1.9449159952e+01 +1.8594208546e+01 2.7289481686e+01 1.0566000000e-01 0.0000e+00 -1.0000e+00
       13  1    1    2    0    0 -1.1841647440e+01 -4.2165694024e+01 +1.3190375162e+02 1.3898482371e+02 1.0566000000e-01 0.0000e+00 1.0000e+00
<mgrwt>
<rscale>  0 0.21437132E+03</rscale>
<asrwt>0</asrwt>
<pdfrwt beam="1">  1        2 0.13706513E+00 0.21437132E+03</pdfrwt>
<pdfrwt beam="2">  1       -2 0.52387347E-02 0.21437132E+03</pdfrwt>
<totfact> 0.55560146E+03</totfact>
</mgrwt>
</event>
<event>
 6      1 +1.8175624e-03 2.50834000e+02 7.81860800e-03 1.11277900e-01
       -2 -1    0    0    0  501 -0.0000000000e+00 +0.0000000000e+00 +1.3552464097e+02 1.3552464100e+02 2.5500000000e-03 0.0000e+00 1.0000e+00
        2 -1    0    0  501    0 +0.0000000000e+00 -0.0000000000e+00 -1.1606321185e+02 1.1606321187e+02 2.5500000000e-03 0.0000e+00 -1.0000e+00
      -13  1    1    2    0    0 +8.6821990771e+01 -3.4300646905e+01 +3.0587576902e+01 9.8235449224e+01 1.0566000000e-01 0.0000e+00 1.0000e+00
       13  1    1    2    0    0 -4.7387923371e+01 +4.5706266404e+01 -4.2099484033e+01 7.8147653771e+01 1.0566000000e-01 0.0000e+00 -1.0000e+00
      -13  1    1    2    0    0 -1.7510500364e+01 +2.2252746303e+01 +1.1466004870e+01 3.0549677130e+01 1.0566000000e-01 0.0000e+00 1.0000e+00
       13  1    1    2    0    0 -2.1923567035e+01 -3.3658365803e+01 +1.9507331386e+01 4.4655072746e+01 1.0566000000e-01 0.0000e+00 -1.0000e+00
<mgrwt>
<rscale>  0 0.25083401E+03</rscale>
<asrwt>0</asrwt>
<pdfrwt beam="1">  1        2 0.29015803E-01 0.25083401E+03</pdfrwt>
<pdfrwt beam="2">  1       -2 0.33881160E-01 0.25083401E+03</pdfrwt>
<totfact> 0.14813512E+03</totfact>
</mgrwt>
</event>
<event>
 6      1 +1.8175624e-03 8.60174400e+02 7.81860800e-03 9.47678200e-02
       -2 -1    0    0    0  501 -0.0000000000e+00 +0.0000000000e+00 +1.0123079703e+02 1.0123079706e+02 2.5500000000e-03 0.0000e+00 1.0000e+00
        2 -1    0    0  501    0 +0.0000000000e+00 -0.0000000000e+00 -1.8272602407e+03 1.8272602407e+03 2.5500000000e-03 0.0000e+00 -1.0000e+00
      -13  1    1    2    0    0 -4.4121200113e+01 +5.1644678172e+01 -1.4208297125e+02 1.5748471344e+02 1.0566000000e-01 0.0000e+00 1.0000e+00
       13  1    1    2    0    0 +4.2808857785e+01 +4.8463748344e+01 -2.2422607304e+02 2.3336382797e+02 1.0566000000e-01 0.0000e+00 -1.0000e+00
      -13  1    1    2    0    0 +2.4948979959e+02 -1.1840249958e+02 -1.7470864666e+02 3.2678346713e+02 1.0566000000e-01 0.0000e+00 1.0000e+00
       13  1    1    2    0    0 -2.4817745726e+02 +1.8294073064e+01 -1.1850117527e+03 1.2108590292e+03 1.0566000000e-01 0.0000e+00 -1.0000e+00
<mgrwt>
<rscale>  0 0.86017443E+03</rscale>
<asrwt>0</asrwt>
<pdfrwt beam="1">  1        2 0.45681495E+00 0.86017443E+03</pdfrwt>
<pdfrwt beam="2">  1       -2 0.25307705E-01 0.86017443E+03</pdfrwt>
<totfact> 0.26529788E+01</totfact>
</mgrwt>
</event>
<event>
 6      1 +1.8175624e-03 2.68652900e+02 7.81860800e-03 1.10205300e-01
       -2 -1    0    0    0  501 -0.0000000000e+00 +0.0000000000e+00 +8.7777305796e+01 8.7777305833e+01 2.5500000000e-03 0.0000e+00 -1.0000e+00
        2 -1    0    0  501    0 +0.0000000000e+00 -0.0000000000e+00 -2.0556109146e+02 2.0556109148e+02 2.5500000000e-03 0.0000e+00 1.0000e+00
      -13  1    1    2    0    0 -4.3632655356e+01 +9.2536739089e+01 -5.1083723816e+01 1.1435215213e+02 1.0566000000e-01 0.0000e+00 -1.0000e+00
       13  1    1    2    0    0 +3.0530986855e+01 +6.3583955476e+00 -4.1474448085e+00 3.1460813956e+01 1.0566000000e-01 0.0000e+00 1.0000e+00
      -13  1    1    2    0    0 +2.1603169567e+01 -1.1235044685e+02 -6.4745928644e+01 1.3145861053e+02 1.0566000000e-01 0.0000e+00 1.0000e+00
       13  1    1    2    0    0 -8.5015010667e+00 +1.3455312217e+01 +2.1933116005e+00 1.6066820689e+01 1.0566000000e-01 0.0000e+00 -1.0000e+00
<mgrwt>
<rscale>  0 0.26865293E+03</rscale>
<asrwt>0</asrwt>
<pdfrwt beam="1">  1        2 0.51390272E-01 0.26865293E+03</pdfrwt>
<pdfrwt beam="2">  1       -2 0.21944327E-01 0.26865293E+03</pdfrwt>
<totfact> 0.17368372E+03</totfact>
</mgrwt>
</event>
<event>
 6      1 +1.8175624e-03 3.86395800e+02 7.81860800e-03 1.04859500e-01
       -2 -1    0    0    0  501 -0.0000000000e+00 +0.0000000000e+00 +1.4850515437e+02 1.4850515439e+02 2.5500000000e-03 0.0000e+00 1.0000e+00
        2 -1    0    0  501    0 +0.0000000000e+00 -0.0000000000e+00 -2.5134095976e+02 2.5134095977e+02 2.5500000000e-03 0.0000e+00 -1.0000e+00
      -13  1    1    2    0    0 -2.8720569701e+01 +9.0864137989e+01 +3.2099950627e+01 1.0055635580e+02 1.0566000000e-01 0.0000e+00 1.0000e+00
       13  1    1    2    0    0 -6.4658498206e+01 -9.6844708930e+01 -3.8815079589e+00 1.1651049869e+02 1.0566000000e-01 0.0000e+00 1.0000e+00
      -13  1    1    2    0    0 +3.6746015155e+01 -2.8505071635e+01 -1.4552355185e+01 4.8729774719e+01 1.0566000000e-01 0.0000e+00 -1.0000e+00
       13  1    1    2    0    0 +5.6633052752e+01 +3.4485642576e+01 -1.1650189288e+02 1.3404948495e+02 1.0566000000e-01 0.0000e+00 -1.0000e+00
<mgrwt>
<rscale>  0 0.38639580E+03</rscale>
<asrwt>0</asrwt>
<pdfrwt beam="1">  1        2 0.62835239E-01 0.38639580E+03</pdfrwt>
<pdfrwt beam="2">  1       -2 0.37126289E-01 0.38639580E+03</pdfrwt>
<totfact> 0.53746264E+02</totfact>
</mgrwt>
</event>
<event>
 6      1 +1.8175624e-03 5.80690500e+02 7.81860800e-03 9.94629700e-02
       -2 -1    0    0    0  501 -0.0000000000e+00 +0.0000000000e+00 +4.2972342231e+01 4.2972342307e+01 2.5500000000e-03 0.0000e+00 1.0000e+00
        2 -1    0    0  501    0 +0.0000000000e+00 -0.0000000000e+00 -1.9617351475e+03 1.9617351475e+03 2.5500000000e-03 0.0000e+00 -1.0000e+00
      -13  1    1    2    0    0 +1.7960887794e+02 -5.0886436498e+01 -8.7358231776e+02 8.9330557791e+02 1.0566000000e-01 0.0000e+00 1.0000e+00
       13  1    1    2    0    0 -2.4971529050e+02 +1.7150285047e+01 -6.6035779883e+02 7.0620414345e+02 1.0566000000e-01 0.0000e+00 -1.0000e+00
      -13  1    1    2    0    0 +6.6817808251e+01 -1.4942996356e+01 -1.4356556483e+02 1.5905657864e+02 1.0566000000e-01 0.0000e+00 1.0000e+00
       13  1    1    2    0    0 +3.2886043026e+00 +4.8679147807e+01 -2.4125712382e+02 2.4614118978e+02 1.0566000000e-01 0.0000e+00 -1.0000e+00
<mgrwt>
<rscale>  0 0.58069047E+03</rscale>
<asrwt>0</asrwt>
<pdfrwt beam="1">  1        2 0.49043349E+00 0.58069047E+03</pdfrwt>
<pdfrwt beam="2">  1       -2 0.10743092E-01 0.58069047E+03</pdfrwt>
<totfact> 0.87937791E+01</totfact>
</mgrwt>
</event>
<event>
 6      1 +1.8175624e-03 3.46959900e+02 7.81860800e-03 1.06387000e-01
       -1 -1    0    0    0  501 -0.0000000000e+00 +0.0000000000e+00 +1.7827044660e+02 1.7827044667e+02 5.0400000000e-03 0.0000e+00 1.0000e+00
        1 -1    0    0  501    0 +0.0000000000e+00 -0.0000000000e+00 -1.6881821617e+02 1.6881821624e+02 5.0400000000e-03 0.0000e+00 -1.0000e+00
      -13  1    1    2    0    0 +2.5817766772e+01 -2.9400532664e+01 +6.1353545510e+01 7.2768242474e+01 1.0566000000e-01 0.0000e+00 1.0000e+00
       13  1    1    2    0    0 +1.0270944597e+01 +4.3992440459e+01 +4.8557861120e+01 6.6322727334e+01 1.0566000000e-01 0.0000e+00 1.0000e+00
      -13  1    1    2    0    0 -2.5517159548e+01 -7.5562726135e+01 +1.1002913860e+01 8.0510411064e+01 1.0566000000e-01 0.0000e+00 -1.0000e+00
       13  1    1    2    0    0 -1.0571551821e+01 +6.0970818340e+01 -1.1146209006e+02 1.2748728204e+02 1.0566000000e-01 0.0000e+00 -1.0000e+00
<mgrwt>
<rscale>  0 0.34695993E+03</rscale>
<asrwt>0</asrwt>
<pdfrwt beam="1">  1        1 0.42204554E-01 0.34695993E+03</pdfrwt>
<pdfrwt beam="2">  1       -1 0.44567612E-01 0.34695993E+03</pdfrwt>
<totfact> 0.49968704E+02</totfact>
</mgrwt>
</event>
<event>
 6      1 +1.8175624e-03 4.10800900e+02 7.81860800e-03 1.04010300e-01
       -2 -1    0    0    0  501 -0.0000000000e+00 +0.0000000000e+00 +2.4468526672e+02 2.4468526673e+02 2.5500000000e-03 0.0000e+00 1.0000e+00
        2 -1    0    0  501    0 +0.0000000000e+00 -0.0000000000e+00 -1.7242287937e+02 1.7242287938e+02 2.5500000000e-03 0.0000e+00 -1.0000e+00
      -13  1    1    2    0    0 -1.5395118070e+01 +4.3015844346e+01 +4.9451396140e+01 6.7326252453e+01 1.0566000000e-01 0.0000e+00 -1.0000e+00
       13  1    1    2    0    0 +3.8827277156e+01 +1.2901556819e+01 +1.3486983386e+02 1.4093931627e+02 1.0566000000e-01 0.0000e+00 1.0000e+00
      -13  1    1    2    0    0 -7.1153784657e+01 -1.4806930679e+01 +8.1473938023e+00 7.3133422297e+01 1.0566000000e-01 0.0000e+00 1.0000e+00
       13  1    1    2    0    0 +4.7721625571e+01 -4.1110470485e+01 -1.2020623645e+02 1.3570915510e+02 1.0566000000e-01 0.0000e+00 -1.0000e+00
<mgrwt>
<rscale>  0 0.41080087E+03</rscale>
<asrwt>0</asrwt>
<pdfrwt beam="1">  1        2 0.43105720E-01 0.41080087E+03</pdfrwt>
<pdfrwt beam="2">  1       -2 0.61171316E-01 0.41080087E+03</pdfrwt>
<totfact> 0.29956728E+02</totfact>
</mgrwt>
</event>
<event>
 7      1 +1.8175624e-03 8.66135000e+01 7.81860800e-03 1.31126600e-01
       -2 -1    0    0    0  501 -0.0000000000e+00 +0.0000000000e+00 +3.2125523197e+01 3.2125523298e+01 2.5500000000e-03 0.0000e+00 1.0000e+00
        2 -1    0    0  501    0 +0.0000000000e+00 -0.0000000000e+00 -5.8379587170e+01 5.8379587225e+01 2.5500000000e-03 0.0000e+00 -1.0000e+00
       23  2    1    2    0    0 +0.0000000000e+00 +0.0000000000e+00 -2.6254063973e+01 9.0505110523e+01 8.6613504465e+01 0.0000e+00 0.0000e+00
      -13  1    3    3    0    0 -2.6050507017e+01 -1.3033783672e+01 -1.2475363507e+01 3.1688393638e+01 1.0566000000e-01 0.0000e+00 -1.0000e+00
       13  1    3    3    0    0 +2.3294581690e+01 +1.5697082115e+01 -1.8526531702e+01 3.3649360529e+01 1.0566000000e-01 0.0000e+00 1.0000e+00
      -13  1    3    3    0    0 -6.8294108439e-01 -1.3361881782e+01 +1.4661339784e+00 1.3459829351e+01 1.0566000000e-01 0.0000e+00 -1.0000e+00
       13  1    3    3    0    0 +3.4388664113e+00 +1.0698583339e+01 +3.2816972578e+00 1.1707527006e+01 1.0566000000e-01 0.0000e+00 1.0000e+00
<mgrwt>
<rscale>  0 0.86613504E+02</rscale>
<asrwt>0</asrwt>
<pdfrwt beam="1">  1        2 0.14594897E-01 0.86613504E+02</pdfrwt>
<pdfrwt beam="2">  1       -2 0.80313809E-02 0.86613504E+02</pdfrwt>
<totfact> 0.32870674E+04</totfact>
</mgrwt>
</event>
<event>
 6      1 +1.8175624e-03 4.39877800e+02 7.81860800e-03 1.03078400e-01
        2 -1    0    0  501    0 +0.0000000000e+00 +0.0000000000e+00 +4.7430448409e+02 4.7430448410e+02 2.5500000000e-03 0.0000e+00 -1.0000e+00
       -2 -1    0    0    0  501 -0.0000000000e+00 -0.0000000000e+00 -1.0198749214e+02 1.0198749218e+02 2.5500000000e-03 0.0000e+00 1.0000e+00
      -13  1    1    2    0    0 -1.8572795850e+01 +3.5584865036e+01 +2.7090096228e+01 4.8426396139e+01 1.0566000000e-01 0.0000e+00 -1.0000e+00
       13  1    1    2    0    0 -9.4296826262e+01 +1.1698485851e+02 +2.8314243996e+01 1.5290211294e+02 1.0566000000e-01 0.0000e+00 -1.0000e+00
      -13  1    1    2    0    0 +1.0718795430e+02 -9.8186005916e+01 +2.1988256178e+02 2.6358699028e+02 1.0566000000e-01 0.0000e+00 1.0000e+00
       13  1    1    2    0    0 +5.6816678103e+00 -5.4383717631e+01 +9.7030089937e+01 1.1137647691e+02 1.0566000000e-01 0.0000e+00 1.0000e+00
<mgrwt>
<rscale>  0 0.43987782E+03</rscale>
<asrwt>0</asrwt>
<pdfrwt beam="1">  1        2 0.11857612E+00 0.43987782E+03</pdfrwt>
<pdfrwt beam="2">  1       -2 0.25496873E-01 0.43987782E+03</pdfrwt>
<totfact> 0.50874016E+02</totfact>
</mgrwt>
</event>
<event>
 6      1 +1.8175624e-03 6.97992700e+02 7.81860800e-03 9.72067100e-02
        2 -1    0    0  501    0 +0.0000000000e+00 +0.0000000000e+00 +5.4302346108e+02 5.4302346109e+02 2.5500000000e-03 0.0000e+00 -1.0000e+00
       -2 -1    0    0    0  501 -0.0000000000e+00 -0.0000000000e+00 -2.2429688294e+02 2.2429688296e+02 2.5500000000e-03 0.0000e+00 1.0000e+00
      -13  1    1    2    0    0 -1.9000095502e+02 -1.1240437092e+02 -8.7253640340e+01 2.3737799904e+02 1.0566000000e-01 0.0000e+00 1.0000e+00
       13  1    1    2    0    0 -8.5883424235e+00 +1.0835822428e+01 +4.5864035372e+00 1.4567804732e+01 1.0566000000e-01 0.0000e+00 1.0000e+00
      -13  1    1    2    0    0 +1.2387449714e+02 -1.3057303429e+01 +3.4603957862e+02 3.6777545506e+02 1.0566000000e-01 0.0000e+00 -1.0000e+00
       13  1    1    2    0    0 +7.4714800303e+01 +1.1462585192e+02 +5.5354236326e+01 1.4759908522e+02 1.0566000000e-01 0.0000e+00 -1.0000e+00
<mgrwt>
<rscale>  0 0.69799275E+03</rscale>
<asrwt>0</asrwt>
<pdfrwt beam="1">  1        2 0.13575586E+00 0.69799275E+03</pdfrwt>
<pdfrwt beam="2">  1       -2 0.56074221E-01 0.69799275E+03</pdfrwt>
<totfact> 0.91529149E+01</totfact>
</mgrwt>
</event>
<event>
 6      1 +1.8175624e-03 2.50795100e+02 7.81860800e-03 1.11280300e-01
        2 -1    0    0  501    0 +0.0000000000e+00 +0.0000000000e+00 +7.0259268777e+02 7.0259268777e+02 2.5500000000e-03 0.0000e+00 -1.0000e+00
       -2 -1    0    0    0  501 -0.0000000000e+00 -0.0000000000e+00 -2.2380740719e+01 2.2380740865e+01 2.5500000000e-03 0.0000e+00 1.0000e+00
      -13  1    1    2    0    0 -7.1890773014e+01 +1.3278697408e+00 +1.8509979325e+02 1.9857490050e+02 1.0566000000e-01 0.0000e+00 1.0000e+00
       13  1    1    2    0    0 +3.5681900860e+01 -4.1471646311e+01 +3.1299024042e+02 3.1773573494e+02 1.0566000000e-01 0.0000e+00 -1.0000e+00
      -13  1    1    2    0    0 +2.5059953340e+01 +9.0863122950e+00 +3.3445352752e+00 2.6865580448e+01 1.0566000000e-01 0.0000e+00 1.0000e+00
       13  1    1    2    0    0 +1.1148918814e+01 +3.1057464275e+01 +1.7877737811e+02 1.8179721275e+02 1.0566000000e-01 0.0000e+00 -1.0000e+00
<mgrwt>
<rscale>  0 0.25079509E+03</rscale>
<asrwt>0</asrwt>
<pdfrwt beam="1">  1        2 0.17564817E+00 0.25079509E+03</pdfrwt>
<pdfrwt beam="2">  1       -2 0.55951854E-02 0.25079509E+03</pdfrwt>
<totfact> 0.35496420E+03</totfact>
</mgrwt>
</event>
<event>
 6      1 +1.8175624e-03 6.64834500e+02 7.81860800e-03 9.77933500e-02
       -3 -1    0    0    0  501 -0.0000000000e+00 +0.0000000000e+00 +4.4706932281e+02 4.4706933422e+02 1.0100000000e-01 0.0000e+00 -1.0000e+00
        3 -1    0    0  501    0 +0.0000000000e+00 -0.0000000000e+00 -2.4716800693e+02 2.4716802756e+02 1.0100000000e-01 0.0000e+00 1.0000e+00
      -13  1    1    2    0    0 +2.1500638482e+02 +1.7963232604e+01 +1.5420326551e+01 2.1630585030e+02 1.0566000000e-01 0.0000e+00 1.0000e+00
       13  1    1    2    0    0 -2.4974400394e+02 +9.7216247154e+01 +1.8082890800e+02 3.2329888857e+02 1.0566000000e-01 0.0000e+00 -1.0000e+00
      -13  1    1    2    0    0 +5.7012764014e+01 -2.6267780134e+01 +4.9050533939e+00 6.2964452245e+01 1.0566000000e-01 0.0000e+00 -1.0000e+00
       13  1    1    2    0    0 -2.2275144891e+01 -8.8911699624e+01 -1.2529720651e+00 9.1668170664e+01 1.0566000000e-01 0.0000e+00 1.0000e+00
<mgrwt>
<rscale>  0 0.66483455E+03</rscale>
<asrwt>0</asrwt>
<pdfrwt beam="1">  1        3 0.61792006E-01 0.66483455E+03</pdfrwt>
<pdfrwt beam="2">  1       -3 0.11176733E+00 0.66483455E+03</pdfrwt>
<totfact> 0.44766423E+00</totfact>
</mgrwt>
</event>
<event>
 6      1 +1.8175624e-03 9.37061200e+02 7.81860800e-03 9.38040300e-02
        2 -1    0    0  501    0 +0.0000000000e+00 +0.0000000000e+00 +4.8557312110e+02 4.8557312110e+02 2.5500000000e-03 0.0000e+00 1.0000e+00
       -2 -1    0    0    0  501 -0.0000000000e+00 -0.0000000000e+00 -4.5208621672e+02 4.5208621673e+02 2.5500000000e-03 0.0000e+00 -1.0000e+00
      -13  1    1    2    0    0 +1.1173843509e+02 -1.8821197056e+01 +3.8929381578e+02 4.0544962881e+02 1.0566000000e-01 0.0000e+00 1.0000e+00
       13  1    1    2    0    0 -2.0922417909e+02 +2.4799691333e+01 -3.0243413603e+02 3.6858675995e+02 1.0566000000e-01 0.0000e+00 -1.0000e+00
      -13  1    1    2    0    0 +6.8019510721e+00 -3.6312057647e+01 +2.0988570140e+01 4.2489567067e+01 1.0566000000e-01 0.0000e+00 1.0000e+00
       13  1    1    2    0    0 +9.0683792925e+01 +3.0333563371e+01 -7.4361345510e+01 1.2113338201e+02 1.0566000000e-01 0.0000e+00 -1.0000e+00
<mgrwt>
<rscale>  0 0.93706118E+03</rscale>
<asrwt>0</asrwt>
<pdfrwt beam="1">  1        2 0.12139328E+00 0.93706118E+03</pdfrwt>
<pdfrwt beam="2">  1       -2 0.11302155E+00 0.93706118E+03</pdfrwt>
<totfact> 0.21547355E+01</totfact>
</mgrwt>
</event>
<event>
 6      1 +1.8175624e-03 4.21815700e+02 7.81860800e-03 1.03647700e-01
        2 -1    0    0  501    0 +0.0000000000e+00 +0.0000000000e+00 +3.9311519391e+02 3.9311519392e+02 2.5500000000e-03 0.0000e+00 -1.0000e+00
       -2 -1    0    0    0  501 -0.0000000000e+00 -0.0000000000e+00 -1.1315288125e+02 1.1315288128e+02 2.5500000000e-03 0.0000e+00 1.0000e+00
      -13  1    1    2    0    0 -4.6538964726e+01 -3.5713872612e+01 +1.3186135403e+02 1.4432180634e+02 1.0566000000e-01 0.0000e+00 1.0000e+00
       13  1    1    2    0    0 -2.6562136827e+01 +6.1983755411e+01 +1.4678468573e+02 1.6153417031e+02 1.0566000000e-01 0.0000e+00 -1.0000e+00
      -13  1    1    2    0    0 +9.3540289213e+01 -4.3565029369e+01 -6.9695857100e+01 1.2451996286e+02 1.0566000000e-01 0.0000e+00 1.0000e+00
       13  1    1    2    0    0 -2.0439187661e+01 +1.7295146570e+01 +7.1012130004e+01 7.5892135685e+01 1.0566000000e-01 0.0000e+00 -1.0000e+00
<mgrwt>
<rscale>  0 0.42181568E+03</rscale>
<asrwt>0</asrwt>
<pdfrwt beam="1">  1        2 0.98278797E-01 0.42181568E+03</pdfrwt>
<pdfrwt beam="2">  1       -2 0.28288221E-01 0.42181568E+03</pdfrwt>
<totfact> 0.53282109E+02</totfact>
</mgrwt>
</event>
<event>
 6      1 +1.8175624e-03 3.09172400e+02 7.81860800e-03 1.08074300e-01
       -2 -1    0    0    0  501 -0.0000000000e+00 +0.0000000000e+00 +3.9942426648e+01 3.9942426730e+01 2.5500000000e-03 0.0000e+00 1.0000e+00
        2 -1    0    0  501    0 +0.0000000000e+00 -0.0000000000e+00 -5.9828336024e+02 5.9828336025e+02 2.5500000000e-03 0.0000e+00 -1.0000e+00
      -13  1    1    2    0    0 -6.0805787306e+01 -8.4446138920e+01 -2.6676572411e+02 2.8634325009e+02 1.0566000000e-01 0.0000e+00 1.0000e+00
       13  1    1    2    0    0 +7.6142606720e+01 +8.2038828891e+01 -1.3954847556e+02 1.7889062077e+02 1.0566000000e-01 0.0000e+00 -1.0000e+00
      -13  1    1    2    0    0 -1.4202123026e+01 -2.7007487385e+01 -1.3618766217e+02 1.3956430476e+02 1.0566000000e-01 0.0000e+00 -1.0000e+00
       13  1    1    2    0    0 -1.1346963879e+00 +2.9414797414e+01 -1.5839071759e+01 3.3427611357e+01 1.0566000000e-01 0.0000e+00 1.0000e+00
<mgrwt>
<rscale>  0 0.30917237E+03</rscale>
<asrwt>0</asrwt>
<pdfrwt beam="1">  1        2 0.14957081E+00 0.30917237E+03</pdfrwt>
<pdfrwt beam="2">  1       -2 0.99856086E-02 0.30917237E+03</pdfrwt>
<totfact> 0.18169984E+03</totfact>
</mgrwt>
</event>
<event>
 6      1 +1.8175624e-03 1.66873100e+02 7.81860800e-03 1.18114800e-01
        2 -1    0    0  501    0 +0.0000000000e+00 +0.0000000000e+00 +1.7525064187e+02 1.7525064189e+02 2.5500000000e-03 0.0000e+00 -1.0000e+00
       -2 -1    0    0    0  501 -0.0000000000e+00 -0.0000000000e+00 -3.9724003852e+01 3.9724003934e+01 2.5500000000e-03 0.0000e+00 1.0000e+00
      -13  1    1    2    0    0 -3.0588523407e+01 -2.9427257358e+01 +6.3445041137e+01 7.6334170912e+01 1.0566000000e-01 0.0000e+00 -1.0000e+00
       13  1    1    2    0    0 +1.7776833090e+00 +2.7772362103e+01 +2.0231884283e+01 3.4406461027e+01 1.0566000000e-01 0.0000e+00 -1.0000e+00
      -13  1    1    2    0    0 -1.3036936521e+01 -3.3038865204e+01 +1.4962994968e+01 3.8541285789e+01 1.0566000000e-01 0.0000e+00 1.0000e+00
       13  1    1    2    0    0 +4.1847776619e+01 +3.4693760460e+01 +3.6886717627e+01 6.5692728092e+01 1.0566000000e-01 0.0000e+00 1.0000e+00
<mgrwt>
<rscale>  0 0.16687309E+03</rscale>
<asrwt>0</asrwt>
<pdfrwt beam="1">  1        2 0.43812660E-01 0.16687309E+03</pdfrwt>
<pdfrwt beam="2">  1       -2 0.99310011E-02 0.16687309E+03</pdfrwt>
<totfact> 0.74850101E+03</totfact>
</mgrwt>
</event>
<event>
 6      1 +1.8175624e-03 2.74857000e+02 7.81860800e-03 1.09853200e-01
        1 -1    0    0  501    0 +0.0000000000e+00 +0.0000000000e+00 +3.1619370814e+02 3.1619370818e+02 5.0400000000e-03 0.0000e+00 -1.0000e+00
       -1 -1    0    0    0  501 -0.0000000000e+00 -0.0000000000e+00 -5.9731083155e+01 5.9731083368e+01 5.0400000000e-03 0.0000e+00 1.0000e+00
      -13  1    1    2    0    0 +5.0181336273e+01 -4.5559030244e+01 +3.3002555087e+01 7.5385486357e+01 1.0566000000e-01 0.0000e+00 -1.0000e+00
       13  1    1    2    0    0 +1.2128072757e+01 -1.1314818055e+01 +8.7061835153e+01 8.8627814825e+01 1.0566000000e-01 0.0000e+00 1.0000e+00
      -13  1    1    2    0    0 -6.2945419103e+01 +8.7160783994e+01 +1.4491570741e+02 1.8044306989e+02 1.0566000000e-01 0.0000e+00 -1.0000e+00
       13  1    1    2    0    0 +6.3601007262e-01 -3.0286935695e+01 -8.5174726666e+00 3.1468420476e+01 1.0566000000e-01 0.0000e+00 1.0000e+00
<mgrwt>
<rscale>  0 0.27485700E+03</rscale>
<asrwt>0</asrwt>
<pdfrwt beam="1">  1        1 0.79048427E-01 0.27485700E+03</pdfrwt>
<pdfrwt beam="2">  1       -1 0.14932771E-01 0.27485700E+03</pdfrwt>
<totfact> 0.14092187E+03</totfact>
</mgrwt>
</event>
<event>
 6      1 +1.8175624e-03 3.78832900e+02 7.81860800e-03 1.05136600e-01
        2 -1    0    0  501    0 +0.0000000000e+00 +0.0000000000e+00 +3.4972292426e+02 3.4972292427e+02 2.5500000000e-03 0.0000e+00 1.0000e+00
       -2 -1    0    0    0  501 -0.0000000000e+00 -0.0000000000e+00 -1.0259150180e+02 1.0259150183e+02 2.5500000000e-03 0.0000e+00 -1.0000e+00
      -13  1    1    2    0    0 +5.7069082662e+01 -2.6231632831e+01 +9.2163834387e+01 1.1153099251e+02 1.0566000000e-01 0.0000e+00 1.0000e+00
       13  1    1    2    0    0 -4.1300784690e+01 -1.5233668438e+01 +1.4568681350e+02 1.5219224113e+02 1.0566000000e-01 0.0000e+00 -1.0000e+00
      -13  1    1    2    0    0 -5.4834367962e+01 +1.8797025812e+01 -7.3910083410e+01 9.3930014813e+01 1.0566000000e-01 0.0000e+00 -1.0000e+00
       13  1    1    2    0    0 +3.9066069989e+01 +2.2668275457e+01 +8.3190857990e+01 9.4661177648e+01 1.0566000000e-01 0.0000e+00 1.0000e+00
<mgrwt>
<rscale>  0 0.37883294E+03</rscale>
<asrwt>0</asrwt>
<pdfrwt beam="1">  1        2 0.87430730E-01 0.37883294E+03</pdfrwt>
<pdfrwt beam="2">  1       -2 0.25647876E-01 0.37883294E+03</pdfrwt>
<totfact> 0.73132774E+02</totfact>
</mgrwt>
</event>
<event>
 6      1 +1.8175624e-03 2.45881900e+02 7.81860800e-03 1.11593500e-01
       -1 -1    0    0    0  501 -0.0000000000e+00 +0.0000000000e+00 +4.2592756931e+01 4.2592757229e+01 5.0400000000e-03 0.0000e+00 1.0000e+00
        1 -1    0    0  501    0 +0.0000000000e+00 -0.0000000000e+00 -3.5486024682e+02 3.5486024686e+02 5.0400000000e-03 0.0000e+00 -1.0000e+00
      -13  1    1    2    0    0 -9.8496788203e+00 +1.1343722834e+01 +5.0196107978e+00 1.5839945618e+01 1.0566000000e-01 0.0000e+00 1.0000e+00
       13  1    1    2    0    0 +6.6774120094e+01 +2.5543292080e+01 -1.1890831689e+02 1.3874596165e+02 1.0566000000e-01 0.0000e+00 -1.0000e+00
      -13  1    1    2    0    0 +3.1379831803e+00 -6.8803219133e+01 -7.3909499323e+01 1.0102650719e+02 1.0566000000e-01 0.0000e+00 1.0000e+00
       13  1    1    2    0    0 -6.0062424454e+01 +3.1916204220e+01 -1.2446928448e+02 1.4184058962e+02 1.0566000000e-01 0.0000e+00 -1.0000e+00
<mgrwt>
<rscale>  0 0.24588189E+03</rscale>
<asrwt>0</asrwt>
<pdfrwt beam="1">  1        1 0.88715053E-01 0.24588189E+03</pdfrwt>
<pdfrwt beam="2">  1       -1 0.10648190E-01 0.24588189E+03</pdfrwt>
<totfact> 0.20475120E+03</totfact>
</mgrwt>
</event>
<event>
 6      1 +1.8175624e-03 3.07275600e+02 7.81860800e-03 1.08165900e-01
        1 -1    0    0  501    0 +0.0000000000e+00 +0.0000000000e+00 +5.2572849515e+02 5.2572849518e+02 5.0400000000e-03 0.0000e+00 -1.0000e+00
       -1 -1    0    0    0  501 -0.0000000000e+00 -0.0000000000e+00 -4.4898791187e+01 4.4898791470e+01 5.0400000000e-03 0.0000e+00 1.0000e+00
      -13  1    1    2    0    0 -4.7000652110e+01 +1.7029507388e+01 +3.9035589956e+01 6.3425971556e+01 1.0566000000e-01 0.0000e+00 1.0000e+00
       13  1    1    2    0    0 +8.7448084201e+01 +6.8418314230e+01 +9.7634328931e+01 1.4785366584e+02 1.0566000000e-01 0.0000e+00 1.0000e+00
      -13  1    1    2    0    0 +7.7259484711e+00 -2.4132110633e+01 +7.9592524635e+01 8.3528618959e+01 1.0566000000e-01 0.0000e+00 -1.0000e+00
       13  1    1    2    0    0 -4.8173380562e+01 -6.1315710984e+01 +2.6456726045e+02 2.7581903029e+02 1.0566000000e-01 0.0000e+00 -1.0000e+00
<mgrwt>
<rscale>  0 0.30727560E+03</rscale>
<asrwt>0</asrwt>
<pdfrwt beam="1">  1        1 0.13143212E+00 0.30727560E+03</pdfrwt>
<pdfrwt beam="2">  1       -1 0.11224698E-01 0.30727560E+03</pdfrwt>
<totfact> 0.10579845E+03</totfact>
</mgrwt>
</event>
<event>
 6      1 +1.8175624e-03 4.19078400e+02 7.81860800e-03 1.03736700e-01
       -2 -1    0    0    0  501 -0.0000000000e+00 +0.0000000000e+00 +6.2868587215e+01 6.2868587266e+01 2.5500000000e-03 0.0000e+00 -1.0000e+00
        2 -1    0    0  501    0 +0.0000000000e+00 -0.0000000000e+00 -6.9838807819e+02 6.9838807820e+02 2.5500000000e-03 0.0000e+00 1.0000e+00
      -13  1    1    2    0    0 +2.2697163048e+01 -1.3373030477e+02 -9.3699158974e+01 1.6485902820e+02 1.0566000000e-01 0.0000e+00 -1.0000e+00
       13  1    1    2    0    0 +3.3746569843e+01 +2.7989114902e+00 -5.5833125879e+01 6.5299418000e+01 1.0566000000e-01 0.0000e+00 1.0000e+00
      -13  1    1    2    0    0 -1.0214547536e+02 +6.9178412491e+01 -3.8453707016e+02 4.0384170213e+02 1.0566000000e-01 0.0000e+00 1.0000e+00
       13  1    1    2    0    0 +4.5701742464e+01 +6.1752980785e+01 -1.0145013596e+02 1.2725651713e+02 1.0566000000e-01 0.0000e+00 -1.0000e+00
<mgrwt>
<rscale>  0 0.41907838E+03</rscale>
<asrwt>0</asrwt>
<pdfrwt beam="1">  1        2 0.17459700E+00 0.41907838E+03</pdfrwt>
<pdfrwt beam="2">  1       -2 0.15717149E-01 0.41907838E+03</pdfrwt>
<totfact> 0.68563013E+02</totfact>
</mgrwt>
</event>
<event>
 6      1 +1.8175624e-03 3.72093400e+02 7.81860800e-03 1.05389500e-01
        2 -1    0    0  501    0 +0.0000000000e+00 +0.0000000000e+00 +3.3888893667e+02 3.3888893668e+02 2.5500000000e-03 0.0000e+00 -1.0000e+00
       -2 -1    0    0    0  501 -0.0000000000e+00 -0.0000000000e+00 -1.0213780658e+02 1.0213780661e+02 2.5500000000e-03 0.0000e+00 1.0000e+00
      -13  1    1    2    0    0 +3.0609538007e+01 -9.5428300485e+01 +3.2040707280e+01 1.0521464935e+02 1.0566000000e-01 0.0000e+00 1.0000e+00
       13  1    1    2    0    0 -4.1537114913e+01 -2.0047933850e+01 +1.1428313045e+02 1.2323918466e+02 1.0566000000e-01 0.0000e+00 1.0000e+00
      -13  1    1    2    0    0 -4.5066105976e+01 -7.8682541527e+00 -6.2218670996e+00 4.6169103581e+01 1.0566000000e-01 0.0000e+00 -1.0000e+00
       13  1    1    2    0    0 +5.5993682882e+01 +1.2334448849e+02 +9.6649159454e+01 1.6640380570e+02 1.0566000000e-01 0.0000e+00 -1.0000e+00
<mgrwt>
<rscale>  0 0.37209339E+03</rscale>
<asrwt>0</asrwt>
<pdfrwt beam="1">  1        2 0.84722233E-01 0.37209339E+03</pdfrwt>
<pdfrwt beam="2">  1       -2 0.25534452E-01 0.37209339E+03</pdfrwt>
<totfact> 0.76468427E+02</totfact>
</mgrwt>
</event>
<event>
 6      1 +1.8175624e-03 4.82663700e+02 7.81860800e-03 1.01840600e-01
        3 -1    0    0  501    0 +0.0000000000e+00 +0.0000000000e+00 +9.7106845465e+02 9.7106845990e+02 1.0100000000e-01 0.0000e+00 -1.0000e+00
       -3 -1    0    0    0  501 -0.0000000000e+00 -0.0000000000e+00 -5.9976226715e+01 5.9976311757e+01 1.0100000000e-01 0.0000e+00 1.0000e+00
      -13  1    1    2    0    0 -7.0066103682e+01 +1.3455633216e+02 +2.5879845091e+02 2.9998552426e+02 1.0566000000e-01 0.0000e+00 -1.0000e+00
       13  1    1    2    0    0 +2.5218925247e+01 -2.9095050123e+00 +4.8052748951e+01 5.4346455779e+01 1.0566000000e-01 0.0000e+00 1.0000e+00
      -13  1    1    2    0    0 -7.5368158296e+01 -1.5595318329e+02 +2.7107228140e+02 3.2168610099e+02 1.0566000000e-01 0.0000e+00 1.0000e+00
       13  1    1    2    0    0 +1.2021533673e+02 +2.4306356146e+01 +3.3316874668e+02 3.5502669063e+02 1.0566000000e-01 0.0000e+00 -1.0000e+00
<mgrwt>
<rscale>  0 0.48266373E+03</rscale>
<asrwt>0</asrwt>
<pdfrwt beam="1">  1        3 0.24276712E+00 0.48266373E+03</pdfrwt>
<pdfrwt beam="2">  1       -3 0.14994068E-01 0.48266373E+03</pdfrwt>
<totfact> 0.83601985E+00</totfact>
</mgrwt>
</event>
<event>
 6      1 +1.8175624e-03 4.78449700e+02 7.81860800e-03 1.01956200e-01
        2 -1    0    0  501    0 +0.0000000000e+00 +0.0000000000e+00 +1.8849508349e+02 1.8849508351e+02 2.5500000000e-03 0.0000e+00 1.0000e+00
       -2 -1    0    0    0  501 -0.0000000000e+00 -0.0000000000e+00 -3.0360748215e+02 3.0360748216e+02 2.5500000000e-03 0.0000e+00 -1.0000e+00
      -13  1    1    2    0    0 +3.1888922776e+01 +3.3276443199e+01 -5.3444310107e+01 7.0572873788e+01 1.0566000000e-01 0.0000e+00 1.0000e+00
       13  1    1    2    0    0 +4.9104910132e+00 -1.0254467976e+01 +3.1730568194e+01 3.3706188711e+01 1.0566000000e-01 0.0000e+00 -1.0000e+00
      -13  1    1    2    0    0 -5.3859539209e+01 -1.4474649644e+02 -1.8021638121e+02 2.3734016393e+02 1.0566000000e-01 0.0000e+00 -1.0000e+00
       13  1    1    2    0    0 +1.7060125419e+01 +1.2172452121e+02 +8.6817724462e+01 1.5048333924e+02 1.0566000000e-01 0.0000e+00 1.0000e+00
<mgrwt>
<rscale>  0 0.47844965E+03</rscale>
<asrwt>0</asrwt>
<pdfrwt beam="1">  1        2 0.47123771E-01 0.47844965E+03</pdfrwt>
<pdfrwt beam="2">  1       -2 0.75901870E-01 0.47844965E+03</pdfrwt>
<totfact> 0.17021889E+02</totfact>
</mgrwt>
</event>
<event>
 6      1 +1.8175624e-03 2.86445900e+02 7.81860800e-03 1.09221900e-01
       -1 -1    0    0    0  501 -0.0000000000e+00 +0.0000000000e+00 +1.6240207429e+02 1.6240207437e+02 5.0400000000e-03 0.0000e+00 -1.0000e+00
        1 -1    0    0  501    0 +0.0000000000e+00 -0.0000000000e+00 -1.2630883087e+02 1.2630883097e+02 5.0400000000e-03 0.0000e+00 1.0000e+00
      -13  1    1    2    0    0 -9.1442178630e+00 -9.1965135331e+01 +8.3755727408e+01 1.2472464021e+02 1.0566000000e-01 0.0000e+00 -1.0000e+00
       13  1    1    2    0    0 -1.7383116595e+01 +1.7141811436e+01 -2.1688809735e+01 3.2656240960e+01 1.0566000000e-01 0.0000e+00 1.0000e+00
      -13  1    1    2    0    0 +4.4073920552e+01 +7.9064761670e+01 +1.0010826122e+01 9.1071262286e+01 1.0566000000e-01 0.0000e+00 1.0000e+00
       13  1    1    2    0    0 -1.7546586094e+01 -4.2414377751e+00 -3.5984500369e+01 4.0258761889e+01 1.0566000000e-01 0.0000e+00 -1.0000e+00
<mgrwt>
<rscale>  0 0.28644592E+03</rscale>
<asrwt>0</asrwt>
<pdfrwt beam="1">  1        1 0.31577208E-01 0.28644592E+03</pdfrwt>
<pdfrwt beam="2">  1       -1 0.40600518E-01 0.28644592E+03</pdfrwt>
<totfact> 0.85464237E+02</totfact>
</mgrwt>
</event>
<event>
 6      1 +1.8175624e-03 3.02687700e+02 7.81860800e-03 1.08390500e-01
        2 -1    0    0  501    0 +0.0000000000e+00 +0.0000000000e+00 +1.0041177911e+02 1.0041177914e+02 2.5500000000e-03 0.0000e+00 -1.0000e+00
       -2 -1    0    0    0  501 -0.0000000000e+00 -0.0000000000e+00 -2.2811022862e+02 2.2811022864e+02 2.5500000000e-03 0.0000e+00 1.0000e+00
      -13  1    1    2    0    0 -4.0366532895e+01 -8.5060643473e+00 -1.6903166960e+02 1.7399289238e+02 1.0566000000e-01 0.0000e+00 1.0000e+00
       13  1    1    2    0    0 +2.9339355898e+01 -1.6980920371e+01 +3.6255809152e+01 4.9635111791e+01 1.0566000000e-01 0.0000e+00 -1.0000e+00
      -13  1    1    2    0    0 -2.6053155812e+01 +4.4672831582e+01 +2.6345510914e+01 5.8039003426e+01 1.0566000000e-01 0.0000e+00 1.0000e+00
       13  1    1    2    0    0 +3.7080332809e+01 -1.9185846864e+01 -2.1268099982e+01 4.6855000181e+01 1.0566000000e-01 0.0000e+00 -1.0000e+00
<mgrwt>
<rscale>  0 0.30268765E+03</rscale>
<asrwt>0</asrwt>
<pdfrwt beam="1">  1        2 0.25102945E-01 0.30268765E+03</pdfrwt>
<pdfrwt beam="2">  1       -2 0.57027556E-01 0.30268765E+03</pdfrwt>
<totfact> 0.63110054E+02</totfact>
</mgrwt>
</event>
<event>
 6      1 +1.8175624e-03 4.06114900e+02 7.81860800e-03 1.04168300e-01
        2 -1    0    0  501    0 +0.0000000000e+00 +0.0000000000e+00 +5.8759386282e+02 5.8759386283e+02 2.5500000000e-03 0.0000e+00 1.0000e+00
       -2 -1    0    0    0  501 -0.0000000000e+00 -0.0000000000e+00 -7.0171488934e+01 7.0171488980e+01 2.5500000000e-03 0.0000e+00 -1.0000e+00
      -13  1    1    2    0    0 -1.5958898665e+02 -5.1359466151e+00 +2.1768407314e+02 2.6996553385e+02 1.0566000000e-01 0.0000e+00 -1.0000e+00
       13  1    1    2    0    0 +1.3527755929e+02 -1.7701628056e+01 +1.4574763476e+02 1.9963904900e+02 1.0566000000e-01 0.0000e+00 1.0000e+00
      -13  1    1    2    0    0 -3.0061207818e+01 +1.4636614971e+00 +1.1262256242e+02 1.1657474534e+02 1.0566000000e-01 0.0000e+00 1.0000e+00
       13  1    1    2    0    0 +5.4372635173e+01 +2.1373913174e+01 +4.1368103571e+01 7.1586023616e+01 1.0566000000e-01 0.0000e+00 -1.0000e+00
<mgrwt>
<rscale>  0 0.40611494E+03</rscale>
<asrwt>0</asrwt>
<pdfrwt beam="1">  1        2 0.14689846E+00 0.40611494E+03</pdfrwt>
<pdfrwt beam="2">  1       -2 0.17542873E-01 0.40611494E+03</pdfrwt>
<totfact> 0.73459315E+02</totfact>
</mgrwt>
</event>
<event>
 6      1 +1.8175624e-03 4.57087000e+02 7.81860800e-03 1.02562900e-01
        1 -1    0    0  501    0 +0.0000000000e+00 +0.0000000000e+00 +1.0542835336e+02 1.0542835348e+02 5.0400000000e-03 0.0000e+00 -1.0000e+00
       -1 -1    0    0    0  501 -0.0000000000e+00 -0.0000000000e+00 -4.9542772299e+02 4.9542772301e+02 5.0400000000e-03 0.0000e+00 1.0000e+00
      -13  1    1    2    0    0 -1.6520402612e+02 -7.8904818338e+01 -2.8022759788e+02 3.3473251766e+02 1.0566000000e-01 0.0000e+00 1.0000e+00
       13  1    1    2    0    0 +1.0116255954e+02 +1.0611051749e+01 -8.7785666109e+01 1.3436067956e+02 1.0566000000e-01 0.0000e+00 -1.0000e+00
      -13  1    1    2    0    0 +4.5577561638e+01 +3.4480373053e+01 -5.6261162925e+01 8.0196881912e+01 1.0566000000e-01 0.0000e+00 1.0000e+00
       13  1    1    2    0    0 +1.8463904936e+01 +3.3813393537e+01 +3.4275057281e+01 5.1565997359e+01 1.0566000000e-01 0.0000e+00 -1.0000e+00
<mgrwt>
<rscale>  0 0.45708699E+03</rscale>
<asrwt>0</asrwt>
<pdfrwt beam="1">  1        1 0.26357090E-01 0.45708699E+03</pdfrwt>
<pdfrwt beam="2">  1       -1 0.12385692E+00 0.45708699E+03</pdfrwt>
<totfact> 0.10807560E+02</totfact>
</mgrwt>
</event>
<event>
 6      1 +1.8175624e-03 1.18524300e+03 7.81860800e-03 9.12587200e-02
       -2 -1    0    0    0  501 -0.0000000000e+00 +0.0000000000e+00 +1.7829112303e+02 1.7829112305e+02 2.5500000000e-03 0.0000e+00 1.0000e+00
        2 -1    0    0  501    0 +0.0000000000e+00 -0.0000000000e+00 -1.9698148566e+03 1.9698148566e+03 2.5500000000e-03 0.0000e+00 -1.0000e+00
      -13  1    1    2    0    0 -4.1620384550e+02 -3.9118209627e+01 -1.1212594126e+03 1.1966530646e+03 1.0566000000e-01 0.0000e+00 1.0000e+00
       13  1    1    2    0    0 +7.6736178588e+00 +2.1511487723e+02 -1.8633807131e+02 2.8470191920e+02 1.0566000000e-01 0.0000e+00 -1.0000e+00
      -13  1    1    2    0    0 +2.5773392433e+02 -1.5812355241e+02 -3.6430284476e+02 4.7344102848e+02 1.0566000000e-01 0.0000e+00 1.0000e+00
       13  1    1    2    0    0 +1.5079630331e+02 -1.7873115185e+01 -1.1962340484e+02 1.9330996738e+02 1.0566000000e-01 0.0000e+00 -1.0000e+00
<mgrwt>
<rscale>  0 0.11852434E+04</rscale>
<asrwt>0</asrwt>
<pdfrwt beam="1">  1        2 0.49245365E+00 0.11852434E+04</pdfrwt>
<pdfrwt beam="2">  1       -2 0.44572787E-01 0.11852434E+04</pdfrwt>
<totfact> 0.62057441E+00</totfact>
</mgrwt>
</event>
<event>
 6      1 +1.8175624e-03 4.42274200e+02 7.81860800e-03 1.03005100e-01
        2 -1    0    0  501    0 +0.0000000000e+00 +0.0000000000e+00 +2.0907833999e+02 2.0907834000e+02 2.5500000000e-03 0.0000e+00 1.0000e+00
       -2 -1    0    0    0  501 -0.0000000000e+00 -0.0000000000e+00 -2.3389130675e+02 2.3389130676e+02 2.5500000000e-03 0.0000e+00 -1.0000e+00
      -13  1    1    2    0    0 +2.2275864341e+00 +2.2524065846e+01 -4.6614225642e+01 5.1818846763e+01 1.0566000000e-01 0.0000e+00 1.0000e+00
       13  1    1    2    0    0 -1.0857099696e+01 -3.9740422502e+01 +2.5160363481e+01 4.8272485424e+01 1.0566000000e-01 0.0000e+00 -1.0000e+00
      -13  1    1    2    0    0 +1.2420777435e+02 -1.1272885767e+02 -1.6082007901e+01 1.6850521862e+02 1.0566000000e-01 0.0000e+00 -1.0000e+00
       13  1    1    2    0    0 -1.1557826109e+02 +1.2994521433e+02 +1.2722903306e+01 1.7437309596e+02 1.0566000000e-01 0.0000e+00 1.0000e+00
<mgrwt>
<rscale>  0 0.44227415E+03</rscale>
<asrwt>0</asrwt>
<pdfrwt beam="1">  1        2 0.52269585E-01 0.44227415E+03</pdfrwt>
<pdfrwt beam="2">  1       -2 0.58472827E-01 0.44227415E+03</pdfrwt>
<totfact> 0.26617787E+02</totfact>
</mgrwt>
</event>
<event>
 6      1 +1.8175624e-03 3.83124500e+02 7.81860800e-03 1.04978500e-01
       -2 -1    0    0    0  501 -0.0000000000e+00 +0.0000000000e+00 +4.3947080328e+02 4.3947080329e+02 2.5500000000e-03 0.0000e+00 -1.0000e+00
        2 -1    0    0  501    0 +0.0000000000e+00 -0.0000000000e+00 -8.3500627942e+01 8.3500627981e+01 2.5500000000e-03 0.0000e+00 1.0000e+00
      -13  1    1    2    0    0 -2.2607484204e+01 +2.2578355711e+01 +6.3182017175e+01 7.0801546219e+01 1.0566000000e-01 0.0000e+00 1.0000e+00
       13  1    1    2    0    0 +8.1160182138e+01 -2.0632793153e+00 +7.9868387247e+01 1.1388679788e+02 1.0566000000e-01 0.0000e+00 -1.0000e+00
      -13  1    1    2    0    0 +6.6447354001e+01 +6.2362629116e+01 +1.5027461662e+02 1.7574646491e+02 1.0566000000e-01 0.0000e+00 -1.0000e+00
       13  1    1    2    0    0 -1.2500005193e+02 -8.2877705511e+01 +6.2645154296e+01 1.6253662226e+02 1.0566000000e-01 0.0000e+00 1.0000e+00
<mgrwt>
<rscale>  0 0.38312446E+03</rscale>
<asrwt>0</asrwt>
<pdfrwt beam="1">  1        2 0.20875157E-01 0.38312446E+03</pdfrwt>
<pdfrwt beam="2">  1       -2 0.10986770E+00 0.38312446E+03</pdfrwt>
<totfact> 0.18154935E+02</totfact>
</mgrwt>
</event>
<event>
 6      1 +1.8175624e-03 7.74924400e+02 7.81860800e-03 9.59703900e-02
        2 -1    0    0  501    0 +0.0000000000e+00 +0.0000000000e+00 +1.0515744746e+03 1.0515744746e+03 2.5500000000e-03 0.0000e+00 -1.0000e+00
       -2 -1    0    0    0  501 -0.0000000000e+00 -0.0000000000e+00 -1.4276398111e+02 1.4276398113e+02 2.5500000000e-03 0.0000e+00 1.0000e+00
      -13  1    1    2    0    0 +6.2180785241e+01 +3.4429103449e+01 +1.3947847579e+00 7.1089871332e+01 1.0566000000e-01 0.0000e+00 1.0000e+00
       13  1    1    2    0    0 +8.8194567626e+01 -4.4498581039e+01 +1.8401924639e+02 2.0885760622e+02 1.0566000000e-01 0.0000e+00 -1.0000e+00
      -13  1    1    2    0    0 +1.0584702609e+02 -1.9352287601e+02 +3.8448075401e+02 4.4326082371e+02 1.0566000000e-01 0.0000e+00 1.0000e+00
       13  1    1    2    0    0 -2.5622237896e+02 +2.0359235360e+02 +3.3891570833e+02 4.7113015446e+02 1.0566000000e-01 0.0000e+00 -1.0000e+00
<mgrwt>
<rscale>  0 0.77492441E+03</rscale>
<asrwt>0</asrwt>
<pdfrwt beam="1">  1        2 0.26289361E+00 0.77492441E+03</pdfrwt>
<pdfrwt beam="2">  1       -2 0.35690996E-01 0.77492441E+03</pdfrwt>
<totfact> 0.72999424E+01</totfact>
</mgrwt>
</event>
<event>
 6      1 +1.8175624e-03 3.91727300e+02 7.81860800e-03 1.04668200e-01
       -2 -1    0    0    0  501 -0.0000000000e+00 +0.0000000000e+00 +2.7568232736e+02 2.7568232737e+02 2.5500000000e-03 0.0000e+00 -1.0000e+00
        2 -1    0    0  501    0 +0.0000000000e+00 -0.0000000000e+00 -1.3915495652e+02 1.3915495654e+02 2.5500000000e-03 0.0000e+00 1.0000e+00
      -13  1    1    2    0    0 -4.7085941423e+01 -7.5582739250e+01 +2.0648205859e+02 2.2486593347e+02 1.0566000000e-01 0.0000e+00 -1.0000e+00
       13  1    1    2    0    0 +5.2087944959e+01 +5.0747999670e+01 -1.6096991130e+00 7.2740056199e+01 1.0566000000e-01 0.0000e+00 -1.0000e+00
      -13  1    1    2    0    0 -4.2261647348e+01 +3.6146044469e+01 -4.7083006925e+01 7.2865657703e+01 1.0566000000e-01 0.0000e+00 1.0000e+00
       13  1    1    2    0    0 +3.7259643812e+01 -1.1311304889e+01 -2.1261981708e+01 4.4365636539e+01 1.0566000000e-01 0.0000e+00 1.0000e+00
<mgrwt>
<rscale>  0 0.39172726E+03</rscale>
<asrwt>0</asrwt>
<pdfrwt beam="1">  1        2 0.34788740E-01 0.39172726E+03</pdfrwt>
<pdfrwt beam="2">  1       -2 0.68920581E-01 0.39172726E+03</pdfrwt>
<totfact> 0.29431345E+02</totfact>
</mgrwt>
</event>
<event>
 7      1 +1.8175624e-03 8.96368300e+01 7.81860800e-03 1.30373400e-01
        2 -1    0    0  501    0 +0.0000000000e+00 +0.0000000000e+00 +8.5533047199e+01 8.5533047237e+01 2.5500000000e-03 0.0000e+00 -1.0000e+00
       -2 -1    0    0    0  501 -0.0000000000e+00 -0.0000000000e+00 -2.3484374335e+01 2.3484374473e+01 2.5500000000e-03 0.0000e+00 1.0000e+00
       23  2    1    2    0    0 +3.5527136788e-15 -1.7763568394e-15 +6.2048672864e+01 1.0901742171e+02 8.9636825201e+01 0.0000e+00 0.0000e+00
      -13  1    3    3    0    0 +2.6347009940e+01 -8.8813341827e+00 +1.7350353793e+01 3.2773296606e+01 1.0566000000e-01 0.0000e+00 1.0000e+00
       13  1    3    3    0    0 +2.1681717188e+00 -1.5164890325e+01 +5.8765418919e+00 1.6407918083e+01 1.0566000000e-01 0.0000e+00 -1.0000e+00
      -13  1    3    3    0    0 +2.4748503287e-01 +1.5505220246e+01 +1.2369991924e+01 1.9836858822e+01 1.0566000000e-01 0.0000e+00 1.0000e+00
       13  1    3    3    0    0 -2.8762666692e+01 +8.5410042624e+00 +2.6451785256e+01 3.9999348199e+01 1.0566000000e-01 0.0000e+00 -1.0000e+00
<mgrwt>
<rscale>  0 0.89636825E+02</rscale>
<asrwt>0</asrwt>
<pdfrwt beam="1">  1        2 0.21383262E-01 0.89636825E+02</pdfrwt>
<pdfrwt beam="2">  1       -2 0.58710937E-02 0.89636825E+02</pdfrwt>
<totfact> 0.34398582E+04</totfact>
</mgrwt>
</event>
<event>
 6      1 +1.8175624e-03 3.16532700e+02 7.81860800e-03 1.07725600e-01
        2 -1    0    0  501    0 +0.0000000000e+00 +0.0000000000e+00 +2.0492186642e+02 2.0492186643e+02 2.5500000000e-03 0.0000e+00 1.0000e+00
       -2 -1    0    0    0  501 -0.0000000000e+00 -0.0000000000e+00 -1.2223313028e+02 1.2223313031e+02 2.5500000000e-03 0.0000e+00 -1.0000e+00
      -13  1    1    2    0    0 -2.0282821669e+01 +5.1429601276e+01 -3.6817675598e+00 5.5407249694e+01 1.0566000000e-01 0.0000e+00 1.0000e+00
       13  1    1    2    0    0 +1.0079347924e+02 -5.2372309616e+01 +6.0664670919e+01 1.2877265911e+02 1.0566000000e-01 0.0000e+00 -1.0000e+00
      -13  1    1    2    0    0 -1.0045260772e+02 -2.9079829189e+01 +1.7917857199e+01 1.0610100676e+02 1.0566000000e-01 0.0000e+00 -1.0000e+00
       13  1    1    2    0    0 +1.9941950150e+01 +3.0022537529e+01 +7.7879755795e+00 3.6874081184e+01 1.0566000000e-01 0.0000e+00 1.0000e+00
<mgrwt>
<rscale>  0 0.31653272E+03</rscale>
<asrwt>0</asrwt>
<pdfrwt beam="1">  1        2 0.51230466E-01 0.31653272E+03</pdfrwt>
<pdfrwt beam="2">  1       -2 0.30558283E-01 0.31653272E+03</pdfrwt>
<totfact> 0.96740177E+02</totfact>
</mgrwt>
</event>
<event>
 6      1 +1.8175624e-03 4.38624100e+02 7.81860800e-03 1.03117000e-01
       -2 -1    0    0    0  501 -0.0000000000e+00 +0.0000000000e+00 +9.3983837644e+01 9.3983837678e+01 2.5500000000e-03 0.0000e+00 1.0000e+00
        2 -1    0    0  501    0 +0.0000000000e+00 -0.0000000000e+00 -5.1176652097e+02 5.1176652098e+02 2.5500000000e-03 0.0000e+00 -1.0000e+00
      -13  1    1    2    0    0 -2.7803280098e+01 -1.2271231567e+01 +4.8221043728e+01 5.6998997628e+01 1.0566000000e-01 0.0000e+00 1.0000e+00
       13  1    1    2    0    0 -1.8300238539e+01 -7.7292876907e+01 -3.4709348046e+02 3.5606598110e+02 1.0566000000e-01 0.0000e+00 -1.0000e+00
      -13  1    1    2    0    0 +1.2224941345e+01 -9.7609925559e+00 -7.8799148840e+01 8.0337059870e+01 1.0566000000e-01 0.0000e+00 1.0000e+00
       13  1    1    2    0    0 +3.3878577292e+01 +9.9325101030e+01 -4.0111097756e+01 1.1234832006e+02 1.0566000000e-01 0.0000e+00 -1.0000e+00
<mgrwt>
<rscale>  0 0.43862413E+03</rscale>
<asrwt>0</asrwt>
<pdfrwt beam="1">  1        2 0.12794162E+00 0.43862413E+03</pdfrwt>
<pdfrwt beam="2">  1       -2 0.23495961E-01 0.43862413E+03</pdfrwt>
<totfact> 0.53307021E+02</totfact>
</mgrwt>
</event>
<event>
 6      1 +1.8175624e-03 2.92818100e+02 7.81860800e-03 1.08888700e-01
       -2 -1    0    0    0  501 -0.0000000000e+00 +0.0000000000e+00 +5.0353161774e+02 5.0353161775e+02 2.5500000000e-03 0.0000e+00 -1.0000e+00
        2 -1    0    0  501    0 +0.0000000000e+00 -0.0000000000e+00 -4.2570538113e+01 4.2570538190e+01 2.5500000000e-03 0.0000e+00 1.0000e+00
      -13  1    1    2    0    0 +6.7701084489e+01 +1.9043733692e+01 +7.1987453257e+01 1.0063948144e+02 1.0566000000e-01 0.0000e+00 1.0000e+00
       13  1    1    2    0    0 +1.4140406233e+01 -5.9194853736e+01 +1.2883173733e+02 1.4248371663e+02 1.0566000000e-01 0.0000e+00 -1.0000e+00
      -13  1    1    2    0    0 -4.4944324515e+01 +6.7469585877e+01 +2.3911327953e+02 2.5248229430e+02 1.0566000000e-01 0.0000e+00 -1.0000e+00
       13  1    1    2    0    0 -3.6897166207e+01 -2.7318465833e+01 +2.1028609516e+01 5.0496663570e+01 1.0566000000e-01 0.0000e+00 1.0000e+00
<mgrwt>
<rscale>  0 0.29281811E+03</rscale>
<asrwt>0</asrwt>
<pdfrwt beam="1">  1        2 0.10642635E-01 0.29281811E+03</pdfrwt>
<pdfrwt beam="2">  1       -2 0.12588290E+00 0.29281811E+03</pdfrwt>
<totfact> 0.29308003E+02</totfact>
</mgrwt>
</event>
<event>
 6      1 +1.8175624e-03 2.32546500e+02 7.81860800e-03 1.12486000e-01
       -2 -1    0    0    0  501 -0.0000000000e+00 +0.0000000000e+00 +6.7921682905e+01 6.7921682953e+01 2.5500000000e-03 0.0000e+00 1.0000e+00
        2 -1    0    0  501    0 +0.0000000000e+00 -0.0000000000e+00 -1.9904492279e+02 1.9904492281e+02 2.5500000000e-03 0.0000e+00 -1.0000e+00
      -13  1    1    2    0    0 -5.4831644826e+01 -2.9890605343e+01 -1.8024326216e+01 6.4998808156e+01 1.0566000000e-01 0.0000e+00 -1.0000e+00
       13  1    1    2    0    0 +4.0573018465e+01 -4.9612844678e-01 -8.9690241414e+00 4.1555631735e+01 1.0566000000e-01 0.0000e+00 1.0000e+00
      -13  1    1    2    0    0 -3.1287939301e+00 +1.6654056342e+01 +2.4554508346e+01 2.9834241875e+01 1.0566000000e-01 0.0000e+00 1.0000e+00
       13  1    1    2    0    0 +1.7387420291e+01 +1.3732677448e+01 -1.2868439788e+02 1.3057792400e+02 1.0566000000e-01 0.0000e+00 -1.0000e+00
<mgrwt>
<rscale>  0 0.23254648E+03</rscale>
<asrwt>0</asrwt>
<pdfrwt beam="1">  1        2 0.49761229E-01 0.23254648E+03</pdfrwt>
<pdfrwt beam="2">  1       -2 0.16980421E-01 0.23254648E+03</pdfrwt>
<totfact> 0.27754879E+03</totfact>
</mgrwt>
</event>
<event>
 6      1 +1.8175624e-03 3.09431400e+02 7.81860800e-03 1.08061900e-01
        2 -1    0    0  501    0 +0.0000000000e+00 +0.0000000000e+00 +6.7793201670e+02 6.7793201671e+02 2.5500000000e-03 0.0000e+00 -1.0000e+00
       -2 -1    0    0    0  501 -0.0000000000e+00 -0.0000000000e+00 -3.5308769077e+01 3.5308769169e+01 2.5500000000e-03 0.0000e+00 1.0000e+00
      -13  1    1    2    0    0 +1.7187266890e+01 -7.2034423001e+01 +1.3602272153e+02 1.5487592510e+02 1.0566000000e-01 0.0000e+00 1.0000e+00
       13  1    1    2    0    0 -3.5873440543e+01 +1.5307761257e+01 +5.5793013182e+01 6.8074244580e+01 1.0566000000e-01 0.0000e+00 -1.0000e+00
      -13  1    1    2    0    0 +6.5774909391e+01 -7.6718354273e+00 +5.3725862707e+01 8.5274118300e+01 1.0566000000e-01 0.0000e+00 1.0000e+00
       13  1    1    2    0    0 -4.7088735739e+01 +6.4398497171e+01 +3.9708165020e+02 4.0501649789e+02 1.0566000000e-01 0.0000e+00 -1.0000e+00
<mgrwt>
<rscale>  0 0.30943138E+03</rscale>
<asrwt>0</asrwt>
<pdfrwt beam="1">  1        2 0.16948301E+00 0.30943138E+03</pdfrwt>
<pdfrwt beam="2">  1       -2 0.88271920E-02 0.30943138E+03</pdfrwt>
<totfact> 0.18446894E+03</totfact>
</mgrwt>
</event>
<event>
 6      1 +1.8175624e-03 4.07727700e+02 7.81860800e-03 1.04113600e-01
        1 -1    0    0  501    0 +0.0000000000e+00 +0.0000000000e+00 +5.8566932541e+02 5.8566932543e+02 5.0400000000e-03 0.0000e+00 -1.0000e+00
       -1 -1    0    0    0  501 -0.0000000000e+00 -0.0000000000e+00 -7.0962348946e+01 7.0962349125e+01 5.0400000000e-03 0.0000e+00 1.0000e+00
      -13  1    1    2    0    0 -9.1251555164e+00 -1.2769250620e+02 +7.2931004099e+01 1.4733494876e+02 1.0566000000e-01 0.0000e+00 1.0000e+00
       13  1    1    2    0    0 +6.6166802018e+01 -1.0508930339e+01 +1.6206352701e+02 1.7536556463e+02 1.0566000000e-01 0.0000e+00 1.0000e+00
      -13  1    1    2    0    0 +4.8431416662e+00 +2.8115885718e+01 +1.7011986723e+00 2.8580837844e+01 1.0566000000e-01 0.0000e+00 -1.0000e+00
       13  1    1    2    0    0 -6.1884788168e+01 +1.1008555082e+02 +2.7801124668e+02 3.0535032332e+02 1.0566000000e-01 0.0000e+00 -1.0000e+00
<mgrwt>
<rscale>  0 0.40772771E+03</rscale>
<asrwt>0</asrwt>
<pdfrwt beam="1">  1        1 0.14641733E+00 0.40772771E+03</pdfrwt>
<pdfrwt beam="2">  1       -1 0.17740587E-01 0.40772771E+03</pdfrwt>
<totfact> 0.42420130E+02</totfact>
</mgrwt>
</event>
<event>
 6      1 +1.8175624e-03 3.11355800e+02 7.81860800e-03 1.07969800e-01
       -2 -1    0    0    0  501 -0.0000000000e+00 +0.0000000000e+00 +7.1392046191e+01 7.1392046237e+01 2.5500000000e-03 0.0000e+00 -1.0000e+00
        2 -1    0    0  501    0 +0.0000000000e+00 -0.0000000000e+00 -3.3947209855e+02 3.3947209856e+02 2.5500000000e-03 0.0000e+00 1.0000e+00
      -13  1    1    2    0    0 +2.7469993259e+01 -1.3337230199e+01 -7.2864649571e+01 7.9004750237e+01 1.0566000000e-01 0.0000e+00 -1.0000e+00
       13  1    1    2    0    0 +4.1242435421e+01 -1.8695827486e+01 -5.4687044214e-01 4.5285568078e+01 1.0566000000e-01 0.0000e+00 1.0000e+00
      -13  1    1    2    0    0 -7.4488506639e+01 -1.6326856440e+01 +9.3450023591e+00 7.6827365539e+01 1.0566000000e-01 0.0000e+00 -1.0000e+00
       13  1    1    2    0    0 +5.7760779592e+00 +4.8359914124e+01 -2.0401353470e+02 2.0974646094e+02 1.0566000000e-01 0.0000e+00 1.0000e+00
<mgrwt>
<rscale>  0 0.31135579E+03</rscale>
<asrwt>0</asrwt>
<pdfrwt beam="1">  1        2 0.84868020E-01 0.31135579E+03</pdfrwt>
<pdfrwt beam="2">  1       -2 0.17848012E-01 0.31135579E+03</pdfrwt>
<totfact> 0.14232674E+03</totfact>
</mgrwt>
</event>
<event>
 6      1 +1.8175624e-03 2.54219800e+02 7.81860800e-03 1.11066700e-01
       -2 -1    0    0    0  501 -0.0000000000e+00 +0.0000000000e+00 +3.2082413311e+01 3.2082413412e+01 2.5500000000e-03 0.0000e+00 -1.0000e+00
        2 -1    0    0  501    0 +0.0000000000e+00 -0.0000000000e+00 -5.0360682200e+02 5.0360682201e+02 2.5500000000e-03 0.0000e+00 1.0000e+00
      -13  1    1    2    0    0 +2.1114011558e+01 -4.0235610385e+01 -2.4645881612e+01 5.1692711977e+01 1.0566000000e-01 0.0000e+00 -1.0000e+00
       13  1    1    2    0    0 +5.3902051818e+01 -3.6097940016e+01 -1.0955879060e+02 1.2732490811e+02 1.0566000000e-01 0.0000e+00 1.0000e+00
      -13  1    1    2    0    0 -2.7948760305e+01 +7.7530308123e+00 -1.3188410481e+02 1.3503581361e+02 1.0566000000e-01 0.0000e+00 -1.0000e+00
       13  1    1    2    0    0 -4.7067303071e+01 +6.8580519589e+01 -2.0543563166e+02 2.2163580172e+02 1.0566000000e-01 0.0000e+00 1.0000e+00
<mgrwt>
<rscale>  0 0.25421977E+03</rscale>
<asrwt>0</asrwt>
<pdfrwt beam="1">  1        2 0.12590168E+00 0.25421977E+03</pdfrwt>
<pdfrwt beam="2">  1       -2 0.80206049E-02 0.25421977E+03</pdfrwt>
<totfact> 0.32321002E+03</totfact>
</mgrwt>
</event>
<event>
 6      1 +1.8175624e-03 2.45196700e+02 7.81860800e-03 1.11637900e-01
        4 -1    0    0  501    0 +0.0000000000e+00 +0.0000000000e+00 +4.4393965132e+01 4.4412127174e+01 1.2700000000e+00 0.0000e+00 -1.0000e+00
       -4 -1    0    0    0  501 -0.0000000000e+00 -0.0000000000e+00 -3.3847907260e+02 3.3848145516e+02 1.2700000000e+00 0.0000e+00 1.0000e+00
      -13  1    1    2    0    0 +6.2931730732e+00 -4.1174111080e+01 -3.9149609702e+01 5.7163052354e+01 1.0566000000e-01 0.0000e+00 -1.0000e+00
       13  1    1    2    0    0 -4.8308028434e+01 +5.7424816892e+01 -4.1046170806e+01 8.5534054669e+01 1.0566000000e-01 0.0000e+00 1.0000e+00
      -13  1    1    2    0    0 +6.9357567703e+01 -2.9768594985e+01 -1.7638214455e+02 1.9185232218e+02 1.0566000000e-01 0.0000e+00 1.0000e+00
       13  1    1    2    0    0 -2.7342712342e+01 +1.3517889173e+01 -3.7507182411e+01 4.8344153135e+01 1.0566000000e-01 0.0000e+00 -1.0000e+00
<mgrwt>
<rscale>  0 0.24519675E+03</rscale>
<asrwt>0</asrwt>
<pdfrwt beam="1">  1        4 0.11101060E-01 0.24519675E+03</pdfrwt>
<pdfrwt beam="2">  1       -4 0.84622329E-01 0.24519675E+03</pdfrwt>
<totfact> 0.14545397E+02</totfact>
</mgrwt>
</event>
<event>
 6      1 +1.8175624e-03 3.41786900e+02 7.81860800e-03 1.06603700e-01
        2 -1    0    0  501    0 +0.0000000000e+00 +0.0000000000e+00 +3.5627264793e+02 3.5627264794e+02 2.5500000000e-03 0.0000e+00 -1.0000e+00
       -2 -1    0    0    0  501 -0.0000000000e+00 -0.0000000000e+00 -8.1972518122e+01 8.1972518162e+01 2.5500000000e-03 0.0000e+00 1.0000e+00
      -13  1    1    2    0    0 -1.0606283164e+00 +1.0206777877e+02 +7.2653249396e+01 1.2528951356e+02 1.0566000000e-01 0.0000e+00 1.0000e+00
       13  1    1    2    0    0 +8.0391943956e+00 -6.5488130032e+00 -1.1703623657e+01 1.5636545943e+01 1.0566000000e-01 0.0000e+00 1.0000e+00
      -13  1    1    2    0    0 -5.4761877403e+01 +3.0186654028e+01 +1.1433891460e+02 1.3032074222e+02 1.0566000000e-01 0.0000e+00 -1.0000e+00
       13  1    1    2    0    0 +4.7783311324e+01 -1.2570561980e+02 +9.9011589471e+01 1.6699836437e+02 1.0566000000e-01 0.0000e+00 -1.0000e+00
<mgrwt>
<rscale>  0 0.34178687E+03</rscale>
<asrwt>0</asrwt>
<pdfrwt beam="1">  1        2 0.89068161E-01 0.34178687E+03</pdfrwt>
<pdfrwt beam="2">  1       -2 0.20493130E-01 0.34178687E+03</pdfrwt>
<totfact> 0.10624496E+03</totfact>
</mgrwt>
</event>
<event>
 6      1 +1.8175624e-03 5.94551800e+02 7.81860800e-03 9.91677400e-02
       -2 -1    0    0    0  501 -0.0000000000e+00 +0.0000000000e+00 +3.8374895935e+02 3.8374895936e+02 2.5500000000e-03 0.0000e+00 -1.0000e+00
        2 -1    0    0  501    0 +0.0000000000e+00 -0.0000000000e+00 -2.3028850736e+02 2.3028850737e+02 2.5500000000e-03 0.0000e+00 1.0000e+00
      -13  1    1    2    0    0 +9.8136972037e+00 -6.3563643293e+01 +6.0633236763e+01 8.8391436044e+01 1.0566000000e-01 0.0000e+00 -1.0000e+00
       13  1    1    2    0    0 -1.5674341412e+02 -7.3924182911e+00 -5.0787424784e+01 1.6493186289e+02 1.0566000000e-01 0.0000e+00 1.0000e+00
      -13  1    1    2    0    0 +5.3859931464e+01 +1.7233148771e+02 +1.2987554261e+02 2.2241110945e+02 1.0566000000e-01 0.0000e+00 -1.0000e+00
       13  1    1    2    0    0 +9.3069785449e+01 -1.0137542613e+02 +1.3739097401e+01 1.3830305835e+02 1.0566000000e-01 0.0000e+00 1.0000e+00
<mgrwt>
<rscale>  0 0.59455185E+03</rscale>
<asrwt>0</asrwt>
<pdfrwt beam="1">  1        2 0.57572127E-01 0.59455185E+03</pdfrwt>
<pdfrwt beam="2">  1       -2 0.95937239E-01 0.59455185E+03</pdfrwt>
<totfact> 0.79615089E+01</totfact>
</mgrwt>
</event>
<event>
 6      1 +1.8175624e-03 3.48164800e+02 7.81860800e-03 1.06337100e-01
        2 -1    0    0  501    0 +0.0000000000e+00 +0.0000000000e+00 +2.4544486338e+02 2.4544486339e+02 2.5500000000e-03 0.0000e+00 1.0000e+00
       -2 -1    0    0    0  501 -0.0000000000e+00 -0.0000000000e+00 -1.2346837362e+02 1.2346837365e+02 2.5500000000e-03 0.0000e+00 -1.0000e+00
      -13  1    1    2    0    0 +8.4905195819e+01 +7.6039603464e+01 +7.4012485106e+01 1.3589986272e+02 1.0566000000e-01 0.0000e+00 -1.0000e+00
       13  1    1    2    0    0 +1.5268541774e+01 +3.8229141075e+01 -8.6318788729e+00 4.2060861761e+01 1.0566000000e-01 0.0000e+00 -1.0000e+00
      -13  1    1    2    0    0 +1.3539126073e+01 -4.7770009341e+01 +2.4508663082e+01 5.5371178941e+01 1.0566000000e-01 0.0000e+00 1.0000e+00
       13  1    1    2    0    0 -1.1371286367e+02 -6.6498735197e+01 +3.2087220437e+01 1.3558133362e+02 1.0566000000e-01 0.0000e+00 1.0000e+00
<mgrwt>
<rscale>  0 0.34816478E+03</rscale>
<asrwt>0</asrwt>
<pdfrwt beam="1">  1        2 0.61361215E-01 0.34816478E+03</pdfrwt>
<pdfrwt beam="2">  1       -2 0.30867094E-01 0.34816478E+03</pdfrwt>
<totfact> 0.77974588E+02</totfact>
</mgrwt>
</event>
<event>
 6      1 +1.8175624e-03 6.06375900e+02 7.81860800e-03 9.89226600e-02
        2 -1    0    0  501    0 +0.0000000000e+00 +0.0000000000e+00 +3.0169457811e+02 3.0169457812e+02 2.5500000000e-03 0.0000e+00 -1.0000e+00
       -2 -1    0    0    0  501 -0.0000000000e+00 -0.0000000000e+00 -3.0468872272e+02 3.0468872273e+02 2.5500000000e-03 0.0000e+00 1.0000e+00
      -13  1    1    2    0    0 -3.4658968102e+00 +3.6128913639e+01 -7.0414716297e+01 7.9218396075e+01 1.0566000000e-01 0.0000e+00 1.0000e+00
       13  1    1    2    0    0 +9.4308615615e+01 -3.8944535348e+01 +2.6289425545e+02 2.8200034136e+02 1.0566000000e-01 0.0000e+00 -1.0000e+00
      -13  1    1    2    0    0 -4.2610473662e+01 +5.9245731590e+01 -8.4501720319e+01 1.1165241188e+02 1.0566000000e-01 0.0000e+00 1.0000e+00
       13  1    1    2    0    0 -4.8232245142e+01 -5.6430109881e+01 -1.1097196345e+02 1.3351215154e+02 1.0566000000e-01 0.0000e+00 -1.0000e+00
<mgrwt>
<rscale>  0 0.60637591E+03</rscale>
<asrwt>0</asrwt>
<pdfrwt beam="1">  1        2 0.75423644E-01 0.60637591E+03</pdfrwt>
<pdfrwt beam="2">  1       -2 0.76172181E-01 0.60637591E+03</pdfrwt>
<totfact> 0.99097376E+01</totfact>
</mgrwt>
</event>
<event>
 6      1 +1.8175624e-03 2.25559100e+02 7.81860800e-03 1.12980500e-01
       -1 -1    0    0    0  501 -0.0000000000e+00 +0.0000000000e+00 +1.7204840226e+01 1.7204840964e+01 5.0400000000e-03 0.0000e+00 1.0000e+00
        1 -1    0    0  501    0 +0.0000000000e+00 -0.0000000000e+00 -7.3928163375e+02 7.3928163377e+02 5.0400000000e-03 0.0000e+00 -1.0000e+00
      -13  1    1    2    0    0 +6.4134697490e+01 +1.1311095638e+01 -3.9339056359e+02 3.9874471406e+02 1.0566000000e-01 0.0000e+00 1.0000e+00
       13  1    1    2    0    0 +6.2523867977e+00 +1.7816722010e+01 -3.2568866338e+01 3.7646648488e+01 1.0566000000e-01 0.0000e+00 -1.0000e+00
      -13  1    1    2    0    0 -7.4567683381e+01 +1.5966415091e+01 -1.8396414894e+02 1.9914337819e+02 1.0566000000e-01 0.0000e+00 1.0000e+00
       13  1    1    2    0    0 +4.1805990933e+00 -4.5094232738e+01 -1.1215321466e+02 1.2095173400e+02 1.0566000000e-01 0.0000e+00 -1.0000e+00
<mgrwt>
<rscale>  0 0.22555906E+03</rscale>
<asrwt>0</asrwt>
<pdfrwt beam="1">  1        1 0.18482030E+00 0.22555906E+03</pdfrwt>
<pdfrwt beam="2">  1       -1 0.43012126E-02 0.22555906E+03</pdfrwt>
<totfact> 0.25159382E+03</totfact>
</mgrwt>
</event>
<event>
 6      1 +1.8175624e-03 4.55699200e+02 7.81860800e-03 1.02603600e-01
       -2 -1    0    0    0  501 -0.0000000000e+00 +0.0000000000e+00 +5.1828041654e+01 5.1828041717e+01 2.5500000000e-03 0.0000e+00 1.0000e+00
        2 -1    0    0  501    0 +0.0000000000e+00 -0.0000000000e+00 -1.0016865279e+03 1.0016865279e+03 2.5500000000e-03 0.0000e+00 -1.0000e+00
      -13  1    1    2    0    0 +7.2786159358e+00 +1.2619612467e+01 -1.4773992725e+01 2.0748852832e+01 1.0566000000e-01 0.0000e+00 -1.0000e+00
       13  1    1    2    0    0 +1.8016118021e+02 +4.0370725084e+01 -3.6712928692e+02 4.1094010607e+02 1.0566000000e-01 0.0000e+00 1.0000e+00
      -13  1    1    2    0    0 +2.4032460774e+01 -3.1471887154e+01 -7.0523201085e+01 8.0879984590e+01 1.0566000000e-01 0.0000e+00 1.0000e+00
       13  1    1    2    0    0 -2.1147225692e+02 -2.1518450397e+01 -4.9743200550e+02 5.4094562611e+02 1.0566000000e-01 0.0000e+00 -1.0000e+00
<mgrwt>
<rscale>  0 0.45569925E+03</rscale>
<asrwt>0</asrwt>
<pdfrwt beam="1">  1        2 0.25042157E+00 0.45569925E+03</pdfrwt>
<pdfrwt beam="2">  1       -2 0.12957014E-01 0.45569925E+03</pdfrwt>
<totfact> 0.49988123E+02</totfact>
</mgrwt>
</event>
<event>
 7      1 +1.8175624e-03 8.91351200e+01 7.81860800e-03 1.30496000e-01
        1 -1    0    0  501    0 +0.0000000000e+00 +0.0000000000e+00 +2.1496467653e+02 2.1496467658e+02 5.0400000000e-03 0.0000e+00 1.0000e+00
       -1 -1    0    0    0  501 -0.0000000000e+00 -0.0000000000e+00 -9.2399708163e+00 9.2399721908e+00 5.0400000000e-03 0.0000e+00 -1.0000e+00
       23  2    1    2    0    0 +0.0000000000e+00 +0.0000000000e+00 +2.0572470571e+02 2.2420464878e+02 8.9135122109e+01 0.0000e+00 0.0000e+00
      -13  1    3    3    0    0 +3.0474997035e+01 -3.1625874711e+00 +1.1895055129e+02 1.2283310718e+02 1.0566000000e-01 0.0000e+00 1.0000e+00
       13  1    3    3    0    0 -1.5968924882e+01 -1.8635247274e+01 +4.7938795451e+01 5.3855531528e+01 1.0566000000e-01 0.0000e+00 -1.0000e+00
      -13  1    3    3    0    0 -1.0309734618e+01 +1.0432117241e+01 +1.6282547673e+01 2.1914657670e+01 1.0566000000e-01 0.0000e+00 -1.0000e+00
       13  1    3    3    0    0 -4.1963375351e+00 +1.1365717504e+01 +2.2552811296e+01 2.5601352395e+01 1.0566000000e-01 0.0000e+00 1.0000e+00
<mgrwt>
<rscale>  0 0.89135122E+02</rscale>
<asrwt>0</asrwt>
<pdfrwt beam="1">  1        1 0.53741169E-01 0.89135122E+02</pdfrwt>
<pdfrwt beam="2">  1       -1 0.23099929E-02 0.89135122E+02</pdfrwt>
<totfact> 0.35327867E+04</totfact>
</mgrwt>
</event>
<event>
 6      1 +1.8175624e-03 2.59519500e+02 7.81860800e-03 1.10743200e-01
        2 -1    0    0  501    0 +0.0000000000e+00 +0.0000000000e+00 +1.8527394201e+02 1.8527394203e+02 2.5500000000e-03 0.0000e+00 -1.0000e+00
       -2 -1    0    0    0  501 -0.0000000000e+00 -0.0000000000e+00 -9.0879454216e+01 9.0879454252e+01 2.5500000000e-03 0.0000e+00 1.0000e+00
      -13  1    1    2    0    0 -1.0045167452e+01 +1.9322008801e+01 -3.7015309712e+01 4.2946358755e+01 1.0566000000e-01 0.0000e+00 1.0000e+00
       13  1    1    2    0    0 +4.0491210404e+01 +1.3770341916e+01 +9.2612947566e+01 1.0201141925e+02 1.0566000000e-01 0.0000e+00 -1.0000e+00
      -13  1    1    2    0    0 -6.9006582102e+01 -3.6035181729e+01 +4.7980737530e+01 9.1447280078e+01 1.0566000000e-01 0.0000e+00 -1.0000e+00
       13  1    1    2    0    0 +3.8560539150e+01 +2.9428310126e+00 -9.1838875926e+00 3.9748338195e+01 1.0566000000e-01 0.0000e+00 1.0000e+00
<mgrwt>
<rscale>  0 0.25951952E+03</rscale>
<asrwt>0</asrwt>
<pdfrwt beam="1">  1        2 0.46318485E-01 0.25951952E+03</pdfrwt>
<pdfrwt beam="2">  1       -2 0.22719864E-01 0.25951952E+03</pdfrwt>
<totfact> 0.18280233E+03</totfact>
</mgrwt>
</event>
<event>
 6      1 +1.8175624e-03 4.72749400e+02 7.81860800e-03 1.02114700e-01
        2 -1    0    0  501    0 +0.0000000000e+00 +0.0000000000e+00 +2.5625277414e+02 2.5625277416e+02 2.5500000000e-03 0.0000e+00 -1.0000e+00
       -2 -1    0    0    0  501 -0.0000000000e+00 -0.0000000000e+00 -2.1803862073e+02 2.1803862075e+02 2.5500000000e-03 0.0000e+00 1.0000e+00
      -13  1    1    2    0    0 -2.0342457823e+02 +4.9349025615e+01 +5.0964809766e+00 2.0938689223e+02 1.0566000000e-01 0.0000e+00 1.0000e+00
       13  1    1    2    0    0 +1.0436322699e+02 -1.5972317875e+01 +9.1700578393e+01 1.3984207281e+02 1.0566000000e-01 0.0000e+00 -1.0000e+00
      -13  1    1    2    0    0 +5.5056171019e+01 +2.6642724004e-01 -2.7450554753e+01 6.1520704409e+01 1.0566000000e-01 0.0000e+00 1.0000e+00
       13  1    1    2    0    0 +4.4005180219e+01 -3.3643134980e+01 -3.1132351206e+01 6.3541725449e+01 1.0566000000e-01 0.0000e+00 -1.0000e+00
<mgrwt>
<rscale>  0 0.47274941E+03</rscale>
<asrwt>0</asrwt>
<pdfrwt beam="1">  1        2 0.64063193E-01 0.47274941E+03</pdfrwt>
<pdfrwt beam="2">  1       -2 0.54509655E-01 0.47274941E+03</pdfrwt>
<totfact> 0.24540454E+02</totfact>
</mgrwt>
</event>
<event>
 6      1 +1.8175624e-03 2.03820500e+02 7.81860800e-03 1.14655500e-01
       -1 -1    0    0    0  501 -0.0000000000e+00 +0.0000000000e+00 +2.1120344112e+01 2.1120344713e+01 5.0400000000e-03 0.0000e+00 -1.0000e+00
        1 -1    0    0  501    0 +0.0000000000e+00 -0.0000000000e+00 -4.9173913076e+02 4.9173913079e+02 5.0400000000e-03 0.0000e+00 1.0000e+00
      -13  1    1    2    0    0 +3.1757429600e+01 +5.7901440501e+01 -1.2158056863e+02 1.3835807522e+02 1.0566000000e-01 0.0000e+00 -1.0000e+00
       13  1    1    2    0    0 +2.3220523640e+01 -1.9263459699e+01 -1.7456047859e+02 1.7714865353e+02 1.0566000000e-01 0.0000e+00 1.0000e+00
      -13  1    1    2    0    0 -3.5120185773e+01 +2.0708217803e+00 -3.0983510926e+01 4.6879684992e+01 1.0566000000e-01 0.0000e+00 -1.0000e+00
       13  1    1    2    0    0 -1.9857767467e+01 -4.0708802582e+01 -1.4349422851e+02 1.5047306176e+02 1.0566000000e-01 0.0000e+00 1.0000e+00
<mgrwt>
<rscale>  0 0.20382051E+03</rscale>
<asrwt>0</asrwt>
<pdfrwt beam="1">  1        1 0.12293475E+00 0.20382051E+03</pdfrwt>
<pdfrwt beam="2">  1       -1 0.52800877E-02 0.20382051E+03</pdfrwt>
<totfact> 0.37055014E+03</totfact>
</mgrwt>
</event>
<event>
 6      1 +1.8175624e-03 4.78862800e+02 7.81860800e-03 1.01944800e-01
       -2 -1    0    0    0  501 -0.0000000000e+00 +0.0000000000e+00 +4.9207321824e+02 4.9207321824e+02 2.5500000000e-03 0.0000e+00 1.0000e+00
        2 -1    0    0  501    0 +0.0000000000e+00 -0.0000000000e+00 -1.1650174913e+02 1.1650174916e+02 2.5500000000e-03 0.0000e+00 -1.0000e+00
      -13  1    1    2    0    0 -6.0289606966e+01 +3.2322404870e+01 +2.5342235300e+02 2.6249280891e+02 1.0566000000e-01 0.0000e+00 1.0000e+00
       13  1    1    2    0    0 +3.6793733425e+00 +2.8001632904e+01 -2.8025372949e+01 3.9787710747e+01 1.0566000000e-01 0.0000e+00 1.0000e+00
      -13  1    1    2    0    0 -8.4217581943e+00 -1.5245210031e+02 +1.0228074087e+02 1.8377684842e+02 1.0566000000e-01 0.0000e+00 -1.0000e+00
       13  1    1    2    0    0 +6.5031991818e+01 +9.2128062531e+01 +4.7893748196e+01 1.2251759933e+02 1.0566000000e-01 0.0000e+00 -1.0000e+00
<mgrwt>
<rscale>  0 0.47886278E+03</rscale>
<asrwt>0</asrwt>
<pdfrwt beam="1">  1        2 0.29125438E-01 0.47886278E+03</pdfrwt>
<pdfrwt beam="2">  1       -2 0.12301830E+00 0.47886278E+03</pdfrwt>
<totfact> 0.93934160E+01</totfact>
</mgrwt>
</event>
<event>
 6      1 +1.8175624e-03 1.52247100e+02 7.81860800e-03 1.19773900e-01
        4 -1    0    0  501    0 +0.0000000000e+00 +0.0000000000e+00 +1.3165952561e+02 1.3166565073e+02 1.2700000000e+00 0.0000e+00 -1.0000e+00
       -4 -1    0    0    0  501 -0.0000000000e+00 -0.0000000000e+00 -4.3997175802e+01 4.4015501571e+01 1.2700000000e+00 0.0000e+00 1.0000e+00
      -13  1    1    2    0    0 +3.5714506044e+01 +2.4124414577e+01 +4.5376095211e+01 6.2582062137e+01 1.0566000000e-01 0.0000e+00 -1.0000e+00
       13  1    1    2    0    0 -1.4316357893e+01 -2.3125883205e+01 +6.0331961508e+01 6.6179462983e+01 1.0566000000e-01 0.0000e+00 -1.0000e+00
      -13  1    1    2    0    0 +7.2982047848e+00 +9.1885728876e+00 -1.0014935895e+01 1.5427370800e+01 1.0566000000e-01 0.0000e+00 1.0000e+00
       13  1    1    2    0    0 -2.8696352936e+01 -1.0187104260e+01 -8.0307710187e+00 3.1492256385e+01 1.0566000000e-01 0.0000e+00 1.0000e+00
<mgrwt>
<rscale>  0 0.15224710E+03</rscale>
<asrwt>0</asrwt>
<pdfrwt beam="1">  1        4 0.32917937E-01 0.15224710E+03</pdfrwt>
<pdfrwt beam="2">  1       -4 0.11002350E-01 0.15224710E+03</pdfrwt>
<totfact> 0.97054060E+02</totfact>
</mgrwt>
</event>
<event>
 6      1 +1.8175624e-03 6.84284000e+02 7.81860800e-03 9.74449300e-02
        2 -1    0    0  501    0 +0.0000000000e+00 +0.0000000000e+00 +5.6942014137e+02 5.6942014138e+02 2.5500000000e-03 0.0000e+00 -1.0000e+00
       -2 -1    0    0    0  501 -0.0000000000e+00 -0.0000000000e+00 -2.0557958153e+02 2.0557958155e+02 2.5500000000e-03 0.0000e+00 1.0000e+00
      -13  1    1    2    0    0 -1.1555939069e+02 -1.6060258924e+01 +4.0532423561e+01 1.2351029599e+02 1.0566000000e-01 0.0000e+00 -1.0000e+00
       13  1    1    2    0    0 -8.3486567302e+01 +5.2472239974e+01 -2.3836480935e+01 1.0144718762e+02 1.0566000000e-01 0.0000e+00 1.0000e+00
      -13  1    1    2    0    0 +3.8591438948e+01 -1.9015756562e+02 +2.2260523768e+02 2.9530035884e+02 1.0566000000e-01 0.0000e+00 1.0000e+00
       13  1    1    2    0    0 +1.6045451904e+02 +1.5374558457e+02 +1.2453937953e+02 2.5474188048e+02 1.0566000000e-01 0.0000e+00 -1.0000e+00
<mgrwt>
<rscale>  0 0.68428402E+03</rscale>
<asrwt>0</asrwt>
<pdfrwt beam="1">  1        2 0.14235503E+00 0.68428402E+03</pdfrwt>
<pdfrwt beam="2">  1       -2 0.51394896E-01 0.68428402E+03</pdfrwt>
<totfact> 0.10264635E+02</totfact>
</mgrwt>
</event>
<event>
 6      1 +1.8175624e-03 2.99912100e+02 7.81860800e-03 1.08528500e-01
       -1 -1    0    0    0  501 -0.0000000000e+00 +0.0000000000e+00 +7.4260142213e+01 7.4260142384e+01 5.0400000000e-03 0.0000e+00 -1.0000e+00
        1 -1    0    0  501    0 +0.0000000000e+00 -0.0000000000e+00 -3.0281132103e+02 3.0281132107e+02 5.0400000000e-03 0.0000e+00 1.0000e+00
      -13  1    1    2    0    0 +5.9751925939e+01 -2.3781489695e+01 -1.5877804437e+02 1.7130770690e+02 1.0566000000e-01 0.0000e+00 -1.0000e+00
       13  1    1    2    0    0 -5.2543450117e+00 -5.9649988424e+01 +1.2632027462e+01 6.1198925990e+01 1.0566000000e-01 0.0000e+00 1.0000e+00
      -13  1    1    2    0    0 -2.3126052192e+01 +6.8775866468e+01 -2.3561874335e+01 7.6289626979e+01 1.0566000000e-01 0.0000e+00 -1.0000e+00
       13  1    1    2    0    0 -3.1371528735e+01 +1.4655611652e+01 -5.8843287575e+01 6.8275203586e+01 1.0566000000e-01 0.0000e+00 1.0000e+00
<mgrwt>
<rscale>  0 0.29991207E+03</rscale>
<asrwt>0</asrwt>
<pdfrwt beam="1">  1        1 0.75702827E-01 0.29991207E+03</pdfrwt>
<pdfrwt beam="2">  1       -1 0.18565036E-01 0.29991207E+03</pdfrwt>
<totfact> 0.10525644E+03</totfact>
</mgrwt>
</event>
<event>
 6      1 +1.8175624e-03 2.43834000e+02 7.81860800e-03 1.11726500e-01
        3 -1    0    0  501    0 +0.0000000000e+00 +0.0000000000e+00 +1.6336313512e+02 1.6336316634e+02 1.0100000000e-01 0.0000e+00 -1.0000e+00
       -3 -1    0    0    0  501 -0.0000000000e+00 -0.0000000000e+00 -9.0985921153e+01 9.0985977211e+01 1.0100000000e-01 0.0000e+00 1.0000e+00
      -13  1    1    2    0    0 -6.9474429325e+01 -6.8213980949e+01 +2.1937826715e+01 9.9805425364e+01 1.0566000000e-01 0.0000e+00 1.0000e+00
       13  1    1    2    0    0 +1.0228012248e+01 +6.9238257311e+00 -3.9084641032e+00 1.2955263524e+01 1.0566000000e-01 0.0000e+00 -1.0000e+00
      -13  1    1    2    0    0 +3.8669914547e+01 -1.1187494844e+01 -1.1133975876e+01 4.1767199029e+01 1.0566000000e-01 0.0000e+00 1.0000e+00
       13  1    1    2    0    0 +2.0576502531e+01 +7.2477650062e+01 +6.5481827228e+01 9.9821255632e+01 1.0566000000e-01 0.0000e+00 -1.0000e+00
<mgrwt>
<rscale>  0 0.24383401E+03</rscale>
<asrwt>0</asrwt>
<pdfrwt beam="1">  1        3 0.40840794E-01 0.24383401E+03</pdfrwt>
<pdfrwt beam="2">  1       -3 0.22746491E-01 0.24383401E+03</pdfrwt>
<totfact> 0.26512609E+02</totfact>
</mgrwt>
</event>
<event>
 6      1 +1.8175624e-03 3.08063800e+02 7.81860800e-03 1.08127800e-01
        2 -1    0    0  501    0 +0.0000000000e+00 +0.0000000000e+00 +3.2210549600e+02 3.2210549601e+02 2.5500000000e-03 0.0000e+00 1.0000e+00
       -2 -1    0    0    0  501 -0.0000000000e+00 -0.0000000000e+00 -7.3658563063e+01 7.3658563107e+01 2.5500000000e-03 0.0000e+00 -1.0000e+00
      -13  1    1    2    0    0 +3.8434863250e+01 -2.3537921978e+01 +9.6555445196e+01 1.0655626516e+02 1.0566000000e-01 0.0000e+00 1.0000e+00
       13  1    1    2    0    0 -1.8846946642e+01 +1.4199109097e+01 -1.0134506120e+01 2.5681539580e+01 1.0566000000e-01 0.0000e+00 -1.0000e+00
      -13  1    1    2    0    0 +6.0205806700e+01 -6.2176115956e+01 +2.6006917432e+01 9.0371342107e+01 1.0566000000e-01 0.0000e+00 1.0000e+00
       13  1    1    2    0    0 -7.9793723309e+01 +7.1514928837e+01 +1.3601907643e+02 1.7315491227e+02 1.0566000000e-01 0.0000e+00 -1.0000e+00
<mgrwt>
<rscale>  0 0.30806381E+03</rscale>
<asrwt>0</asrwt>
<pdfrwt beam="1">  1        2 0.80526373E-01 0.30806381E+03</pdfrwt>
<pdfrwt beam="2">  1       -2 0.18414641E-01 0.30806381E+03</pdfrwt>
<totfact> 0.14331381E+03</totfact>
</mgrwt>
</event>
<event>
 6      1 +1.8175624e-03 3.75408000e+02 7.81860800e-03 1.05264400e-01
       -2 -1    0    0    0  501 -0.0000000000e+00 +0.0000000000e+00 +7.3001390846e+01 7.3001390891e+01 2.5500000000e-03 0.0000e+00 -1.0000e+00
        2 -1    0    0  501    0 +0.0000000000e+00 -0.0000000000e+00 -4.8263183550e+02 4.8263183551e+02 2.5500000000e-03 0.0000e+00 1.0000e+00
      -13  1    1    2    0    0 +3.5197224505e+01 -2.0098809189e+01 +3.7757320498e+00 4.0707174555e+01 1.0566000000e-01 0.0000e+00 -1.0000e+00
       13  1    1    2    0    0 +3.7313063970e+01 +4.9572397155e+01 -9.0738837265e+01 1.0992376929e+02 1.0566000000e-01 0.0000e+00 1.0000e+00
      -13  1    1    2    0    0 +8.5969502253e+00 +1.5467841117e+01 +3.3000391763e+01 3.7445943472e+01 1.0566000000e-01 0.0000e+00 -1.0000e+00
       13  1    1    2    0    0 -8.1107238700e+01 -4.4941429082e+01 -3.5566773120e+02 3.6755633908e+02 1.0566000000e-01 0.0000e+00 1.0000e+00
<mgrwt>
<rscale>  0 0.37540802E+03</rscale>
<asrwt>0</asrwt>
<pdfrwt beam="1">  1        2 0.12065795E+00 0.37540802E+03</pdfrwt>
<pdfrwt beam="2">  1       -2 0.18250349E-01 0.37540802E+03</pdfrwt>
<totfact> 0.89498910E+02</totfact>
</mgrwt>
</event>
<event>
 6      1 +1.8175624e-03 2.56493000e+02 7.81860800e-03 1.10926900e-01
        2 -1    0    0  501    0 +0.0000000000e+00 +0.0000000000e+00 +7.3947224758e+02 7.3947224759e+02 2.5500000000e-03 0.0000e+00 1.0000e+00
       -2 -1    0    0    0  501 -0.0000000000e+00 -0.0000000000e+00 -2.2241769128e+01 2.2241769274e+01 2.5500000000e-03 0.0000e+00 -1.0000e+00
      -13  1    1    2    0    0 -2.1147816953e+00 -7.3353545749e+01 +9.1500475039e+01 1.1729263861e+02 1.0566000000e-01 0.0000e+00 -1.0000e+00
       13  1    1    2    0    0 +3.2612046099e+01 +2.7519247470e+01 +9.5588480477e+01 1.0468057745e+02 1.0566000000e-01 0.0000e+00 -1.0000e+00
      -13  1    1    2    0    0 -5.5949900767e+01 +9.8325267963e+00 +3.2320987322e+02 3.2816414078e+02 1.0566000000e-01 0.0000e+00 1.0000e+00
       13  1    1    2    0    0 +2.5452636364e+01 +3.6001771482e+01 +2.0693164972e+02 2.1157666002e+02 1.0566000000e-01 0.0000e+00 1.0000e+00
<mgrwt>
<rscale>  0 0.25649305E+03</rscale>
<asrwt>0</asrwt>
<pdfrwt beam="1">  1        2 0.18486806E+00 0.25649305E+03</pdfrwt>
<pdfrwt beam="2">  1       -2 0.55604424E-02 0.25649305E+03</pdfrwt>
<totfact> 0.33120272E+03</totfact>
</mgrwt>
</event>
<event>
 6      1 +1.8175624e-03 1.38437500e+02 7.81860800e-03 1.21544700e-01
       -1 -1    0    0    0  501 -0.0000000000e+00 +0.0000000000e+00 +4.3585882815e+01 4.3585883106e+01 5.0400000000e-03 0.0000e+00 1.0000e+00
        1 -1    0    0  501    0 +0.0000000000e+00 -0.0000000000e+00 -1.0992624131e+02 1.0992624143e+02 5.0400000000e-03 0.0000e+00 -1.0000e+00
      -13  1    1    2    0    0 -1.2350866352e+01 +1.1256447027e+01 -8.2041762109e+00 1.8616422069e+01 1.0566000000e-01 0.0000e+00 1.0000e+00
       13  1    1    2    0    0 -4.1144389364e+00 -1.2259786570e+01 -2.5855044910e+01 2.8908917064e+01 1.0566000000e-01 0.0000e+00 -1.0000e+00
      -13  1    1    2    0    0 +4.2175106746e+01 +3.6872574890e+01 -1.1420461339e+01 5.7173110019e+01 1.0566000000e-01 0.0000e+00 -1.0000e+00
       13  1    1    2    0    0 -2.5709801458e+01 -3.5869235347e+01 -2.0860676037e+01 4.8813675380e+01 1.0566000000e-01 0.0000e+00 1.0000e+00
<mgrwt>
<rscale>  0 0.13843746E+03</rscale>
<asrwt>0</asrwt>
<pdfrwt beam="1">  1        1 0.27481560E-01 0.13843746E+03</pdfrwt>
<pdfrwt beam="2">  1       -1 0.10896471E-01 0.13843746E+03</pdfrwt>
<totfact> 0.85474167E+03</totfact>
</mgrwt>
</event>
<event>
 6      1 +1.8175624e-03 4.83970900e+02 7.81860800e-03 1.01805000e-01
       -2 -1    0    0    0  501 -0.0000000000e+00 +0.0000000000e+00 +3.8614172177e+02 3.8614172178e+02 2.5500000000e-03 0.0000e+00 -1.0000e+00
        2 -1    0    0  501    0 +0.0000000000e+00 -0.0000000000e+00 -1.5164630467e+02 1.5164630469e+02 2.5500000000e-03 0.0000e+00 1.0000e+00
      -13  1    1    2    0    0 -1.2749334363e+02 -8.1756718967e+01 +1.7650669053e+02 2.3257974274e+02 1.0566000000e-01 0.0000e+00 -1.0000e+00
       13  1    1    2    0    0 +1.3277954284e+01 +3.4298266379e+00 +4.2877354510e+01 4.5017179771e+01 1.0566000000e-01 0.0000e+00 1.0000e+00
      -13  1    1    2    0    0 +1.3247217254e+02 -4.0806880634e+01 +1.6987289975e+01 1.3965191438e+02 1.0566000000e-01 0.0000e+00 -1.0000e+00
       13  1    1    2    0    0 -1.8256783189e+01 +1.1913377296e+02 -1.8759179114e+00 1.2053918958e+02 1.0566000000e-01 0.0000e+00 1.0000e+00
<mgrwt>
<rscale>  0 0.48397093E+03</rscale>
<asrwt>0</asrwt>
<pdfrwt beam="1">  1        2 0.37911576E-01 0.48397093E+03</pdfrwt>
<pdfrwt beam="2">  1       -2 0.96535430E-01 0.48397093E+03</pdfrwt>
<totfact> 0.12534169E+02</totfact>
</mgrwt>
</event>
<event>
 7      1 +1.8175624e-03 1.15156200e+02 7.81860800e-03 1.25130900e-01
        3 -1    0    0  501    0 +0.0000000000e+00 +0.0000000000e+00 +4.5733870377e+01 4.5733981903e+01 1.0100000000e-01 0.0000e+00 -1.0000e+00
       -3 -1    0    0    0  501 -0.0000000000e+00 -0.0000000000e+00 -7.2489503847e+01 7.2489574209e+01 1.0100000000e-01 0.0000e+00 1.0000e+00
       23  2    1    2    0    0 +0.0000000000e+00 +0.0000000000e+00 -2.6755633469e+01 1.1822355611e+02 1.1515617785e+02 0.0000e+00 0.0000e+00
      -13  1    3    3    0    0 +3.0993999624e+01 +1.5860722524e+01 +8.9646514277e+00 3.5952283250e+01 1.0566000000e-01 0.0000e+00 -1.0000e+00
       13  1    3    3    0    0 +1.0983500822e+01 -2.4935712396e+01 -1.5272750087e+01 3.1236118553e+01 1.0566000000e-01 0.0000e+00 1.0000e+00
      -13  1    3    3    0    0 -3.1334329174e+01 +7.3632594984e+00 -2.3473463627e+01 3.9838077689e+01 1.0566000000e-01 0.0000e+00 1.0000e+00
       13  1    3    3    0    0 -1.0643171271e+01 +1.7117303735e+00 +3.0259288175e+00 1.1197076619e+01 1.0566000000e-01 0.0000e+00 -1.0000e+00
<mgrwt>
<rscale>  0 0.11515618E+03</rscale>
<asrwt>0</asrwt>
<pdfrwt beam="1">  1        3 0.11433490E-01 0.11515618E+03</pdfrwt>
<pdfrwt beam="2">  1       -3 0.18122399E-01 0.11515618E+03</pdfrwt>
<totfact> 0.34801733E+03</totfact>
</mgrwt>
</event>
<event>
 6      1 +1.8175624e-03 3.66692500e+02 7.81860800e-03 1.05596500e-01
        4 -1    0    0  501    0 +0.0000000000e+00 +0.0000000000e+00 +1.4276018409e+02 1.4276583296e+02 1.2700000000e+00 0.0000e+00 1.0000e+00
       -4 -1    0    0    0  501 -0.0000000000e+00 -0.0000000000e+00 -2.3545872903e+02 2.3546215402e+02 1.2700000000e+00 0.0000e+00 -1.0000e+00
      -13  1    1    2    0    0 -3.8533007078e+01 +7.2411965533e+00 -5.7311224447e+01 6.9439291281e+01 1.0566000000e-01 0.0000e+00 -1.0000e+00
       13  1    1    2    0    0 -1.8514819733e+01 +2.1629518892e+01 -2.1177678970e+01 3.5484361172e+01 1.0566000000e-01 0.0000e+00 -1.0000e+00
      -13  1    1    2    0    0 -4.0235502962e+00 -8.9580759909e+01 -1.1169203657e+02 1.4323415689e+02 1.0566000000e-01 0.0000e+00 1.0000e+00
       13  1    1    2    0    0 +6.1071377107e+01 +6.0710044465e+01 +9.7482395048e+01 1.3007017763e+02 1.0566000000e-01 0.0000e+00 1.0000e+00
<mgrwt>
<rscale>  0 0.36669250E+03</rscale>
<asrwt>0</asrwt>
<pdfrwt beam="1">  1        4 0.35691181E-01 0.36669250E+03</pdfrwt>
<pdfrwt beam="2">  1       -4 0.58865816E-01 0.36669250E+03</pdfrwt>
<totfact> 0.39669688E+01</totfact>
</mgrwt>
</event>
<event>
 6      1 +1.8175624e-03 3.28403300e+02 7.81860800e-03 1.07184600e-01
       -2 -1    0    0    0  501 -0.0000000000e+00 +0.0000000000e+00 +1.2591335970e+02 1.2591335973e+02 2.5500000000e-03 0.0000e+00 -1.0000e+00
        2 -1    0    0  501    0 +0.0000000000e+00 -0.0000000000e+00 -2.1413278091e+02 2.1413278093e+02 2.5500000000e-03 0.0000e+00 1.0000e+00
      -13  1    1    2    0    0 -1.5816825544e+01 +3.3480481597e+01 +6.6846803419e+01 7.6417412346e+01 1.0566000000e-01 0.0000e+00 -1.0000e+00
       13  1    1    2    0    0 +3.8279346004e+01 -6.9222282667e+01 -1.1699731188e+02 1.4122823690e+02 1.0566000000e-01 0.0000e+00 1.0000e+00
      -13  1    1    2    0    0 +3.4899702064e+01 -5.1167967795e+00 +1.0556089121e+01 3.6818650098e+01 1.0566000000e-01 0.0000e+00 -1.0000e+00
       13  1    1    2    0    0 -5.7362222525e+01 +4.0858597849e+01 -4.8625001871e+01 8.5581841311e+01 1.0566000000e-01 0.0000e+00 1.0000e+00
<mgrwt>
<rscale>  0 0.32840328E+03</rscale>
<asrwt>0</asrwt>
<pdfrwt beam="1">  1        2 0.53533195E-01 0.32840328E+03</pdfrwt>
<pdfrwt beam="2">  1       -2 0.31478340E-01 0.32840328E+03</pdfrwt>
<totfact> 0.87335403E+02</totfact>
</mgrwt>
</event>
<event>
 6      1 +1.8175624e-03 3.97434300e+02 7.81860800e-03 1.04467200e-01
        2 -1    0    0  501    0 +0.0000000000e+00 +0.0000000000e+00 +1.3579466187e+02 1.3579466189e+02 2.5500000000e-03 0.0000e+00 -1.0000e+00
       -2 -1    0    0    0  501 -0.0000000000e+00 -0.0000000000e+00 -2.9079572093e+02 2.9079572094e+02 2.5500000000e-03 0.0000e+00 1.0000e+00
      -13  1    1    2    0    0 +2.0703581029e+01 -8.0498786452e+01 -1.4656214615e+01 8.4400880792e+01 1.0566000000e-01 0.0000e+00 1.0000e+00
       13  1    1    2    0    0 -1.5682431415e+02 +4.2519372857e+01 -9.2246005038e+01 1.8684512085e+02 1.0566000000e-01 0.0000e+00 -1.0000e+00
      -13  1    1    2    0    0 +6.5425263010e+01 +3.2264461644e+01 -4.1954542821e+01 8.4152571871e+01 1.0566000000e-01 0.0000e+00 1.0000e+00
       13  1    1    2    0    0 +7.0695470110e+01 +5.7149519506e+00 -6.1442965907e+00 7.1191809322e+01 1.0566000000e-01 0.0000e+00 -1.0000e+00
<mgrwt>
<rscale>  0 0.39743430E+03</rscale>
<asrwt>0</asrwt>
<pdfrwt beam="1">  1        2 0.33948666E-01 0.39743430E+03</pdfrwt>
<pdfrwt beam="2">  1       -2 0.72698929E-01 0.39743430E+03</pdfrwt>
<totfact> 0.26929937E+02</totfact>
</mgrwt>
</event>
<event>
 6      1 +1.8175624e-03 6.14139700e+02 7.81860800e-03 9.87649700e-02
        2 -1    0    0  501    0 +0.0000000000e+00 +0.0000000000e+00 +2.3140420293e+02 2.3140420295e+02 2.5500000000e-03 0.0000e+00 -1.0000e+00
       -2 -1    0    0    0  501 -0.0000000000e+00 -0.0000000000e+00 -4.0747704894e+02 4.0747704895e+02 2.5500000000e-03 0.0000e+00 1.0000e+00
      -13  1    1    2    0    0 -4.0247470303e+01 -1.5059968930e+01 -5.3119097204e+01 6.8325040664e+01 1.0566000000e-01 0.0000e+00 1.0000e+00
       13  1    1    2    0    0 -1.1662555232e+02 +2.3679509964e+02 -1.1947656329e+02 2.8973798337e+02 1.0566000000e-01 0.0000e+00 -1.0000e+00
      -13  1    1    2    0    0 +1.4391068180e+02 -1.6848806888e+02 -2.2701919199e+01 2.2274178321e+02 1.0566000000e-01 0.0000e+00 1.0000e+00
       13  1    1    2    0    0 +1.2962340818e+01 -5.3247061834e+01 +1.9224733684e+01 5.8076444646e+01 1.0566000000e-01 0.0000e+00 -1.0000e+00
<mgrwt>
<rscale>  0 0.61413973E+03</rscale>
<asrwt>0</asrwt>
<pdfrwt beam="1">  1        2 0.57851051E-01 0.61413973E+03</pdfrwt>
<pdfrwt beam="2">  1       -2 0.10186926E+00 0.61413973E+03</pdfrwt>
<totfact> 0.68666617E+01</totfact>
</mgrwt>
</event>
<event>
 6      1 +1.8175624e-03 7.45528300e+02 7.81860800e-03 9.64239200e-02
       -2 -1    0    0    0  501 -0.0000000000e+00 +0.0000000000e+00 +5.3632877384e+02 5.3632877385e+02 2.5500000000e-03 0.0000e+00 1.0000e+00
        2 -1    0    0  501    0 +0.0000000000e+00 -0.0000000000e+00 -2.5908199570e+02 2.5908199571e+02 2.5500000000e-03 0.0000e+00 -1.0000e+00
      -13  1    1    2    0    0 -1.1506075191e+01 +1.9148934908e+01 +1.5515385700e+00 2.2393970403e+01 1.0566000000e-01 0.0000e+00 -1.0000e+00
       13  1    1    2    0    0 +4.6272746993e+01 +1.0378785845e+01 +2.1872028265e+02 2.2380227773e+02 1.0566000000e-01 0.0000e+00 1.0000e+00
      -13  1    1    2    0    0 -1.4722738528e+02 +1.8384717646e+02 +1.6228612952e+02 2.8602882069e+02 1.0566000000e-01 0.0000e+00 1.0000e+00
       13  1    1    2    0    0 +1.1246071348e+02 -2.1337489721e+02 -1.0531117259e+02 2.6318570074e+02 1.0566000000e-01 0.0000e+00 -1.0000e+00
<mgrwt>
<rscale>  0 0.74552835E+03</rscale>
<asrwt>0</asrwt>
<pdfrwt beam="1">  1        2 0.64770499E-01 0.74552835E+03</pdfrwt>
<pdfrwt beam="2">  1       -2 0.13408219E+00 0.74552835E+03</pdfrwt>
<totfact> 0.30498726E+01</totfact>
</mgrwt>
</event>
<event>
 6      1 +1.8175624e-03 3.43382200e+02 7.81860800e-03 1.06536400e-01
        2 -1    0    0  501    0 +0.0000000000e+00 +0.0000000000e+00 +7.7468760605e+02 7.7468760605e+02 2.5500000000e-03 0.0000e+00 -1.0000e+00
       -2 -1    0    0    0  501 -0.0000000000e+00 -0.0000000000e+00 -3.8051255337e+01 3.8051255422e+01 2.5500000000e-03 0.0000e+00 1.0000e+00
      -13  1    1    2    0    0 -9.3877795994e+01 +9.7425002497e+01 +3.0272985155e+02 3.3158716181e+02 1.0566000000e-01 0.0000e+00 1.0000e+00
       13  1    1    2    0    0 -1.7510298818e+01 -4.2365436093e+01 +2.3113889323e+02 2.3564091297e+02 1.0566000000e-01 0.0000e+00 -1.0000e+00
      -13  1    1    2    0    0 +7.6096779014e+01 -8.9674085022e+00 +1.4273290256e+02 1.6199946552e+02 1.0566000000e-01 0.0000e+00 1.0000e+00
       13  1    1    2    0    0 +3.5291315798e+01 -4.6092157902e+01 +6.0034703370e+01 8.3511321170e+01 1.0566000000e-01 0.0000e+00 -1.0000e+00
<mgrwt>
<rscale>  0 0.34338221E+03</rscale>
<asrwt>0</asrwt>
<pdfrwt beam="1">  1        2 0.19367191E+00 0.34338221E+03</pdfrwt>
<pdfrwt beam="2">  1       -2 0.95128134E-02 0.34338221E+03</pdfrwt>
<totfact> 0.13274958E+03</totfact>
</mgrwt>
</event>
<event>
 6      1 +1.8175624e-03 3.28761100e+02 7.81860800e-03 1.07168600e-01
       -1 -1    0    0    0  501 -0.0000000000e+00 +0.0000000000e+00 +7.1153159219e+01 7.1153159397e+01 5.0400000000e-03 0.0000e+00 1.0000e+00
        1 -1    0    0  501    0 +0.0000000000e+00 -0.0000000000e+00 -3.7975773880e+02 3.7975773883e+02 5.0400000000e-03 0.0000e+00 -1.0000e+00
      -13  1    1    2    0    0 -3.1978048880e+01 +1.5530322153e+01 -8.1881802733e+01 8.9266047853e+01 1.0566000000e-01 0.0000e+00 -1.0000e+00
       13  1    1    2    0    0 -8.4875071110e+01 +7.4874570966e+01 -1.3445011583e+02 1.7574647616e+02 1.0566000000e-01 0.0000e+00 1.0000e+00
      -13  1    1    2    0    0 +5.6384774347e+01 -8.3025261023e+01 -6.0621392573e+01 1.1724931193e+02 1.0566000000e-01 0.0000e+00 -1.0000e+00
       13  1    1    2    0    0 +6.0468345643e+01 -7.3796320960e+00 -3.1651268448e+01 6.8649062288e+01 1.0566000000e-01 0.0000e+00 1.0000e+00
<mgrwt>
<rscale>  0 0.32876109E+03</rscale>
<asrwt>0</asrwt>
<pdfrwt beam="1">  1        1 0.94939429E-01 0.32876109E+03</pdfrwt>
<pdfrwt beam="2">  1       -1 0.17788291E-01 0.32876109E+03</pdfrwt>
<totfact> 0.82679074E+02</totfact>
</mgrwt>
</event>
<event>
 6      1 +1.8175624e-03 5.34956700e+02 7.81860800e-03 1.00503700e-01
        1 -1    0    0  501    0 +0.0000000000e+00 +0.0000000000e+00 +5.4112442084e+02 5.4112442086e+02 5.0400000000e-03 0.0000e+00 -1.0000e+00
       -1 -1    0    0    0  501 -0.0000000000e+00 -0.0000000000e+00 -1.3221482192e+02 1.3221482202e+02 5.0400000000e-03 0.0000e+00 1.0000e+00
      -13  1    1    2    0    0 -2.8811201591e+01 +2.0610871588e+01 +4.9434386762e+01 6.0816635252e+01 1.0566000000e-01 0.0000e+00 -1.0000e+00
       13  1    1    2    0    0 -1.6374219936e+01 -2.2002655688e+02 +6.9362152240e+01 2.3128104146e+02 1.0566000000e-01 0.0000e+00 -1.0000e+00
      -13  1    1    2    0    0 -2.6491742278e+01 +1.4816360774e+02 +2.2889458612e+02 2.7394709304e+02 1.0566000000e-01 0.0000e+00 1.0000e+00
       13  1    1    2    0    0 +7.1677163805e+01 +5.1252077553e+01 +6.1218473792e+01 1.0729447312e+02 1.0566000000e-01 0.0000e+00 1.0000e+00
<mgrwt>
<rscale>  0 0.53495670E+03</rscale>
<asrwt>0</asrwt>
<pdfrwt beam="1">  1        1 0.13528110E+00 0.53495670E+03</pdfrwt>
<pdfrwt beam="2">  1       -1 0.33053706E-01 0.53495670E+03</pdfrwt>
<totfact> 0.16780912E+02</totfact>
</mgrwt>
</event>
<event>
 6      1 +1.8175624e-03 2.09319300e+02 7.81860800e-03 1.14210600e-01
        4 -1    0    0  501    0 +0.0000000000e+00 +0.0000000000e+00 +1.6949797893e+01 1.6997310041e+01 1.2700000000e+00 0.0000e+00 1.0000e+00
       -4 -1    0    0    0  501 -0.0000000000e+00 -0.0000000000e+00 -6.4528743238e+02 6.4528868213e+02 1.2700000000e+00 0.0000e+00 -1.0000e+00
      -13  1    1    2    0    0 -3.6322024406e+01 -3.0482712540e-01 -9.9463717503e+01 1.0588873708e+02 1.0566000000e-01 0.0000e+00 -1.0000e+00
       13  1    1    2    0    0 +5.1738669732e+01 -2.7292143802e+01 -1.0990495781e+02 1.2450245770e+02 1.0566000000e-01 0.0000e+00 1.0000e+00
      -13  1    1    2    0    0 +4.3837729981e+00 +6.2531800697e+01 -2.9491737772e+02 3.0150574523e+02 1.0566000000e-01 0.0000e+00 -1.0000e+00
       13  1    1    2    0    0 -1.9800418324e+01 -3.4934829770e+01 -1.2405158146e+02 1.3038905216e+02 1.0566000000e-01 0.0000e+00 1.0000e+00
<mgrwt>
<rscale>  0 0.20931926E+03</rscale>
<asrwt>0</asrwt>
<pdfrwt beam="1">  1        4 0.42435469E-02 0.20931926E+03</pdfrwt>
<pdfrwt beam="2">  1       -4 0.16132787E+00 0.20931926E+03</pdfrwt>
<totfact> 0.14629799E+02</totfact>
</mgrwt>
</event>
<event>
 6      1 +1.8175624e-03 5.50547400e+02 7.81860800e-03 1.00136700e-01
        2 -1    0    0  501    0 +0.0000000000e+00 +0.0000000000e+00 +7.7426330123e+01 7.7426330165e+01 2.5500000000e-03 0.0000e+00 -1.0000e+00
       -2 -1    0    0    0  501 -0.0000000000e+00 -0.0000000000e+00 -9.7868017147e+02 9.7868017147e+02 2.5500000000e-03 0.0000e+00 1.0000e+00
      -13  1    1    2    0    0 -1.8847950701e+02 -1.1181864175e+02 -5.5726536655e+02 5.9880934622e+02 1.0566000000e-01 0.0000e+00 1.0000e+00
       13  1    1    2    0    0 +9.3584813471e+01 +2.5513396072e+00 -2.0279489927e+02 2.2336161036e+02 1.0566000000e-01 0.0000e+00 -1.0000e+00
      -13  1    1    2    0    0 -1.4053769289e+01 -1.5416296731e+01 -1.8051648517e+01 2.7587022572e+01 1.0566000000e-01 0.0000e+00 1.0000e+00
       13  1    1    2    0    0 +1.0894846283e+02 +1.2468359887e+02 -1.2314192701e+02 2.0634852249e+02 1.0566000000e-01 0.0000e+00 -1.0000e+00
<mgrwt>
<rscale>  0 0.55054742E+03</rscale>
<asrwt>0</asrwt>
<pdfrwt beam="1">  1        2 0.19356586E-01 0.55054742E+03</pdfrwt>
<pdfrwt beam="2">  1       -2 0.24467000E+00 0.55054742E+03</pdfrwt>
<totfact> 0.21387861E+01</totfact>
</mgrwt>
</event>
<event>
 6      1 +1.8175624e-03 5.66586900e+02 7.81860800e-03 9.97726000e-02
       -2 -1    0    0    0  501 -0.0000000000e+00 +0.0000000000e+00 +3.5960575046e+02 3.5960575047e+02 2.5500000000e-03 0.0000e+00 -1.0000e+00
        2 -1    0    0  501    0 +0.0000000000e+00 -0.0000000000e+00 -2.2317548119e+02 2.2317548121e+02 2.5500000000e-03 0.0000e+00 1.0000e+00
      -13  1    1    2    0    0 +1.0834906813e+02 -8.8836081173e+01 +2.4826354992e+02 2.8507222114e+02 1.0566000000e-01 0.0000e+00 -1.0000e+00
       13  1    1    2    0    0 -2.0932319355e+01 +4.2493643895e+01 +4.9555413313e+00 4.7628146289e+01 1.0566000000e-01 0.0000e+00 -1.0000e+00
      -13  1    1    2    0    0 -1.3053157028e+02 -2.3322946854e+01 -4.1841884194e+01 1.3904389640e+02 1.0566000000e-01 0.0000e+00 1.0000e+00
       13  1    1    2    0    0 +4.3114821503e+01 +6.9665384132e+01 -7.4946937789e+01 1.1103696784e+02 1.0566000000e-01 0.0000e+00 1.0000e+00
<mgrwt>
<rscale>  0 0.56658693E+03</rscale>
<asrwt>0</asrwt>
<pdfrwt beam="1">  1        2 0.55793870E-01 0.56658693E+03</pdfrwt>
<pdfrwt beam="2">  1       -2 0.89901437E-01 0.56658693E+03</pdfrwt>
<totfact> 0.96001124E+01</totfact>
</mgrwt>
</event>
<event>
 6      1 +1.8175624e-03 2.74509600e+02 7.81860800e-03 1.09872600e-01
       -2 -1    0    0    0  501 -0.0000000000e+00 +0.0000000000e+00 +1.0852478560e+02 1.0852478563e+02 2.5500000000e-03 0.0000e+00 1.0000e+00
        2 -1    0    0  501    0 +0.0000000000e+00 -0.0000000000e+00 -1.7359061240e+02 1.7359061242e+02 2.5500000000e-03 0.0000e+00 -1.0000e+00
      -13  1    1    2    0    0 +2.4047491510e+01 -4.7544004627e+01 +6.4197127007e+01 8.3426593505e+01 1.0566000000e-01 0.0000e+00 1.0000e+00
       13  1    1    2    0    0 +2.0152630602e+01 -1.8624824275e+00 -6.1633626042e+01 6.4871506720e+01 1.0566000000e-01 0.0000e+00 -1.0000e+00
      -13  1    1    2    0    0 +2.8549962637e+01 +5.6647966489e+00 -8.3523415859e+00 3.0281397947e+01 1.0566000000e-01 0.0000e+00 1.0000e+00
       13  1    1    2    0    0 -7.2750084749e+01 +4.3741690405e+01 -5.9276986175e+01 1.0353589988e+02 1.0566000000e-01 0.0000e+00 -1.0000e+00
<mgrwt>
<rscale>  0 0.27450963E+03</rscale>
<asrwt>0</asrwt>
<pdfrwt beam="1">  1        2 0.43397653E-01 0.27450963E+03</pdfrwt>
<pdfrwt beam="2">  1       -2 0.27131197E-01 0.27450963E+03</pdfrwt>
<totfact> 0.14346919E+03</totfact>
</mgrwt>
</event>
<event>
 6      1 +1.8175624e-03 2.88750400e+02 7.81860800e-03 1.09100300e-01
       -1 -1    0    0    0  501 -0.0000000000e+00 +0.0000000000e+00 +5.0390827896e+02 5.0390827899e+02 5.0400000000e-03 0.0000e+00 1.0000e+00
        1 -1    0    0  501    0 +0.0000000000e+00 -0.0000000000e+00 -4.1365055351e+01 4.1365055658e+01 5.0400000000e-03 0.0000e+00 -1.0000e+00
      -13  1    1    2    0    0 +1.8958779214e+01 +1.1858116520e-01 +4.0891547282e+00 1.9395404641e+01 1.0566000000e-01 0.0000e+00 -1.0000e+00
       13  1    1    2    0    0 +3.3214320809e+01 +3.9813801898e+01 +2.6046406703e+01 5.8023757157e+01 1.0566000000e-01 0.0000e+00 -1.0000e+00
      -13  1    1    2    0    0 +5.3060757666e+01 -3.9465268566e+01 +2.3526971069e+02 2.4438657770e+02 1.0566000000e-01 0.0000e+00 1.0000e+00
       13  1    1    2    0    0 -1.0523385769e+02 -4.6711449761e-01 +1.9713795149e+02 2.2346759515e+02 1.0566000000e-01 0.0000e+00 1.0000e+00
<mgrwt>
<rscale>  0 0.28875037E+03</rscale>
<asrwt>0</asrwt>
<pdfrwt beam="1">  1        1 0.10341264E-01 0.28875037E+03</pdfrwt>
<pdfrwt beam="2">  1       -1 0.12597707E+00 0.28875037E+03</pdfrwt>
<totfact> 0.36078666E+02</totfact>
</mgrwt>
</event>
<event>
 6      1 +1.8175624e-03 6.88276800e+02 7.81860800e-03 9.73749300e-02
       -2 -1    0    0    0  501 -0.0000000000e+00 +0.0000000000e+00 +5.9852110700e+01 5.9852110755e+01 2.5500000000e-03 0.0000e+00 -1.0000e+00
        2 -1    0    0  501    0 +0.0000000000e+00 -0.0000000000e+00 -1.9787313473e+03 1.9787313473e+03 2.5500000000e-03 0.0000e+00 1.0000e+00
      -13  1    1    2    0    0 +2.7429531134e+02 -5.2117313402e+01 -4.8408444805e+02 5.5883082967e+02 1.0566000000e-01 0.0000e+00 -1.0000e+00
       13  1    1    2    0    0 -4.1696269129e+01 -2.3266295178e+01 -1.0736238752e+02 1.1750145858e+02 1.0566000000e-01 0.0000e+00 -1.0000e+00
      -13  1    1    2    0    0 -1.8405969556e+02 -1.0688699626e+01 -1.0833223199e+03 1.0988992127e+03 1.0566000000e-01 0.0000e+00 1.0000e+00
       13  1    1    2    0    0 -4.8539346644e+01 +8.6072308206e+01 -2.4411008114e+02 2.6335195707e+02 1.0566000000e-01 0.0000e+00 1.0000e+00
<mgrwt>
<rscale>  0 0.68827683E+03</rscale>
<asrwt>0</asrwt>
<pdfrwt beam="1">  1        2 0.49468262E+00 0.68827683E+03</pdfrwt>
<pdfrwt beam="2">  1       -2 0.14963034E-01 0.68827683E+03</pdfrwt>
<totfact> 0.47872312E+01</totfact>
</mgrwt>
</event>
<event>
 6      1 +1.8175624e-03 2.75620100e+02 7.81860800e-03 1.09810500e-01
       -2 -1    0    0    0  501 -0.0000000000e+00 +0.0000000000e+00 +3.0403826056e+01 3.0403826163e+01 2.5500000000e-03 0.0000e+00 1.0000e+00
        2 -1    0    0  501    0 +0.0000000000e+00 -0.0000000000e+00 -6.2464533791e+02 6.2464533791e+02 2.5500000000e-03 0.0000e+00 -1.0000e+00
      -13  1    1    2    0    0 +3.3239498818e+01 +3.9371242366e+01 -1.0914869137e+01 5.2669768742e+01 1.0566000000e-01 0.0000e+00 1.0000e+00
       13  1    1    2    0    0 -4.4954692210e+00 +5.1142563343e+01 -2.1672770172e+02 2.2272556855e+02 1.0566000000e-01 0.0000e+00 1.0000e+00
      -13  1    1    2    0    0 -1.6794767448e+01 -4.7542969335e+01 -1.4245158527e+02 1.5111208905e+02 1.0566000000e-01 0.0000e+00 -1.0000e+00
       13  1    1    2    0    0 -1.1949262149e+01 -4.2970836373e+01 -2.2414735572e+02 2.2854173773e+02 1.0566000000e-01 0.0000e+00 -1.0000e+00
<mgrwt>
<rscale>  0 0.27562009E+03</rscale>
<asrwt>0</asrwt>
<pdfrwt beam="1">  1        2 0.15616129E+00 0.27562009E+03</pdfrwt>
<pdfrwt beam="2">  1       -2 0.76009586E-02 0.27562009E+03</pdfrwt>
<totfact> 0.26303149E+03</totfact>
</mgrwt>
</event>
<event>
 6      1 +1.8175624e-03 3.44543300e+02 7.81860800e-03 1.06487700e-01
        3 -1    0    0  501    0 +0.0000000000e+00 +0.0000000000e+00 +3.0059328785e+02 3.0059330482e+02 1.0100000000e-01 0.0000e+00 -1.0000e+00
       -3 -1    0    0    0  501 -0.0000000000e+00 -0.0000000000e+00 -9.8729768143e+01 9.8729819804e+01 1.0100000000e-01 0.0000e+00 1.0000e+00
      -13  1    1    2    0    0 +3.1292600460e+01 +5.5423217967e+01 +1.4795676908e+02 1.6106575245e+02 1.0566000000e-01 0.0000e+00 1.0000e+00
       13  1    1    2    0    0 -1.3453976768e+01 -9.3048272764e+01 +8.3041169425e+01 1.2543858074e+02 1.0566000000e-01 0.0000e+00 -1.0000e+00
      -13  1    1    2    0    0 -4.6851445939e+01 +5.6582731537e+01 -2.6368183643e+01 7.8050981848e+01 1.0566000000e-01 0.0000e+00 -1.0000e+00
       13  1    1    2    0    0 +2.9012822247e+01 -1.8957676740e+01 -2.7662351502e+00 3.4767809581e+01 1.0566000000e-01 0.0000e+00 1.0000e+00
<mgrwt>
<rscale>  0 0.34454329E+03</rscale>
<asrwt>0</asrwt>
<pdfrwt beam="1">  1        3 0.75148330E-01 0.34454329E+03</pdfrwt>
<pdfrwt beam="2">  1       -3 0.24682451E-01 0.34454329E+03</pdfrwt>
<totfact> 0.66735950E+01</totfact>
</mgrwt>
</event>
<event>
 6      1 +1.8175624e-03 4.98374000e+02 7.81860800e-03 1.01420400e-01
       -2 -1    0    0    0  501 -0.0000000000e+00 +0.0000000000e+00 +4.1577544351e+01 4.1577544429e+01 2.5500000000e-03 0.0000e+00 1.0000e+00
        2 -1    0    0  501    0 +0.0000000000e+00 -0.0000000000e+00 -1.4934544781e+03 1.4934544781e+03 2.5500000000e-03 0.0000e+00 -1.0000e+00
      -13  1    1    2    0    0 -2.0687717410e+01 +1.8833475511e+01 -1.7637308817e+01 3.3072152603e+01 1.0566000000e-01 0.0000e+00 1.0000e+00
       13  1    1    2    0    0 -9.0938030455e+01 -8.9817806860e+01 -4.3092500249e+02 4.4948118175e+02 1.0566000000e-01 0.0000e+00 -1.0000e+00
      -13  1    1    2    0    0 +1.6435492711e+02 -6.1305091056e+01 -5.4128974828e+02 5.6900391827e+02 1.0566000000e-01 0.0000e+00 1.0000e+00
       13  1    1    2    0    0 -5.2729179244e+01 +1.3228942240e+02 -4.6202487412e+02 4.8347476986e+02 1.0566000000e-01 0.0000e+00 -1.0000e+00
<mgrwt>
<rscale>  0 0.49837404E+03</rscale>
<asrwt>0</asrwt>
<pdfrwt beam="1">  1        2 0.37336344E+00 0.49837404E+03</pdfrwt>
<pdfrwt beam="2">  1       -2 0.10394391E-01 0.49837404E+03</pdfrwt>
<totfact> 0.26347000E+02</totfact>
</mgrwt>
</event>
<event>
 6      1 +1.8175624e-03 3.13519800e+02 7.81860800e-03 1.07867100e-01
       -2 -1    0    0    0  501 -0.0000000000e+00 +0.0000000000e+00 +2.8139026700e+02 2.8139026701e+02 2.5500000000e-03 0.0000e+00 1.0000e+00
        2 -1    0    0  501    0 +0.0000000000e+00 -0.0000000000e+00 -8.7329482546e+01 8.7329482583e+01 2.5500000000e-03 0.0000e+00 -1.0000e+00
      -13  1    1    2    0    0 -3.2228557597e+01 +4.6342658217e+01 +9.4862402073e+01 1.1038663138e+02 1.0566000000e-01 0.0000e+00 1.0000e+00
       13  1    1    2    0    0 -5.5441347086e+01 +2.4419503194e+01 +7.6220640826e-01 6.0585866550e+01 1.0566000000e-01 0.0000e+00 -1.0000e+00
      -13  1    1    2    0    0 +1.0253701910e+02 -9.9932146563e+00 +8.5459057923e+01 1.3385427289e+02 1.0566000000e-01 0.0000e+00 1.0000e+00
       13  1    1    2    0    0 -1.4867114414e+01 -6.0768946755e+01 +1.2977118047e+01 6.3892978781e+01 1.0566000000e-01 0.0000e+00 -1.0000e+00
<mgrwt>
<rscale>  0 0.31351980E+03</rscale>
<asrwt>0</asrwt>
<pdfrwt beam="1">  1        2 0.21832371E-01 0.31351980E+03</pdfrwt>
<pdfrwt beam="2">  1       -2 0.70347566E-01 0.31351980E+03</pdfrwt>
<totfact> 0.47524307E+02</totfact>
</mgrwt>
</event>
<event>
 6      1 +1.8175624e-03 2.74071100e+02 7.81860800e-03 1.09897200e-01
       -2 -1    0    0    0  501 -0.0000000000e+00 +0.0000000000e+00 +7.5711398434e+01 7.5711398477e+01 2.5500000000e-03 0.0000e+00 1.0000e+00
        2 -1    0    0  501    0 +0.0000000000e+00 -0.0000000000e+00 -2.4803057601e+02 2.4803057603e+02 2.5500000000e-03 0.0000e+00 -1.0000e+00
      -13  1    1    2    0    0 +3.0681523452e+01 +1.5500893969e+01 -3.6286800994e+01 4.9983764220e+01 1.0566000000e-01 0.0000e+00 1.0000e+00
       13  1    1    2    0    0 -1.9963629867e+01 -2.2565370185e+01 +2.9123081592e+01 4.1903549903e+01 1.0566000000e-01 0.0000e+00 -1.0000e+00
      -13  1    1    2    0    0 +4.8787602532e+01 +1.6094241873e+01 +4.7606734490e+00 5.1593894581e+01 1.0566000000e-01 0.0000e+00 1.0000e+00
       13  1    1    2    0    0 -5.9505496117e+01 -9.0297656572e+00 -1.6991613163e+02 1.8026076580e+02 1.0566000000e-01 0.0000e+00 -1.0000e+00
<mgrwt>
<rscale>  0 0.27407110E+03</rscale>
<asrwt>0</asrwt>
<pdfrwt beam="1">  1        2 0.62007642E-01 0.27407110E+03</pdfrwt>
<pdfrwt beam="2">  1       -2 0.18927850E-01 0.27407110E+03</pdfrwt>
<totfact> 0.18269566E+03</totfact>
</mgrwt>
</event>
<event>
 6      1 +1.8175624e-03 4.15857200e+02 7.81860800e-03 1.03842300e-01
       -1 -1    0    0    0  501 -0.0000000000e+00 +0.0000000000e+00 +1.0004193944e+02 1.0004193957e+02 5.0400000000e-03 0.0000e+00 1.0000e+00
        1 -1    0    0  501    0 +0.0000000000e+00 -0.0000000000e+00 -4.3216179441e+02 4.3216179444e+02 5.0400000000e-03 0.0000e+00 -1.0000e+00
      -13  1    1    2    0    0 +9.3221944912e+01 -2.7916557317e-01 +3.5617214712e+01 9.9794819978e+01 1.0566000000e-01 0.0000e+00 1.0000e+00
       13  1    1    2    0    0 +1.5777395454e+01 -4.3564424129e+01 -9.1795311710e+01 1.0282594844e+02 1.0566000000e-01 0.0000e+00 -1.0000e+00
      -13  1    1    2    0    0 -7.1394136057e+01 -3.2739464891e+01 -6.4691722264e+01 1.0175473118e+02 1.0566000000e-01 0.0000e+00 1.0000e+00
       13  1    1    2    0    0 -3.7605204309e+01 +7.6583054593e+01 -2.1125003571e+02 2.2782823441e+02 1.0566000000e-01 0.0000e+00 -1.0000e+00
<mgrwt>
<rscale>  0 0.41585721E+03</rscale>
<asrwt>0</asrwt>
<pdfrwt beam="1">  1        1 0.10804044E+00 0.41585721E+03</pdfrwt>
<pdfrwt beam="2">  1       -1 0.25010486E-01 0.41585721E+03</pdfrwt>
<totfact> 0.38882476E+02</totfact>
</mgrwt>
</event>
<event>
 7      1 +1.8175624e-03 9.17347300e+01 7.81860800e-03 1.29870400e-01
       -1 -1    0    0    0  501 -0.0000000000e+00 +0.0000000000e+00 +1.0240303196e+02 1.0240303208e+02 5.0400000000e-03 0.0000e+00 1.0000e+00
        1 -1    0    0  501    0 +0.0000000000e+00 -0.0000000000e+00 -2.0544462400e+01 2.0544463019e+01 5.0400000000e-03 0.0000e+00 -1.0000e+00
       23  2    1    2    0    0 +0.0000000000e+00 +0.0000000000e+00 +8.1858569558e+01 1.2294749510e+02 9.1734732471e+01 0.0000e+00 0.0000e+00
      -13  1    3    3    0    0 -2.6441688408e+01 +1.4046366469e+01 +1.1828339755e+01 3.2192919754e+01 1.0566000000e-01 0.0000e+00 1.0000e+00
       13  1    3    3    0    0 -7.6063107194e+00 -9.2447336442e+00 +3.4444885381e+01 3.6466180988e+01 1.0566000000e-01 0.0000e+00 -1.0000e+00
      -13  1    3    3    0    0 +1.9268727053e+01 +6.8983964964e+00 +1.0775890821e+01 2.3130125453e+01 1.0566000000e-01 0.0000e+00 1.0000e+00
       13  1    3    3    0    0 +1.4779272075e+01 -1.1700029322e+01 +2.4809453601e+01 3.1158268906e+01 1.0566000000e-01 0.0000e+00 -1.0000e+00
<mgrwt>
<rscale>  0 0.91734732E+02</rscale>
<asrwt>0</asrwt>
<pdfrwt beam="1">  1        1 0.51361157E-02 0.91734732E+02</pdfrwt>
<pdfrwt beam="2">  1       -1 0.25600758E-01 0.91734732E+02</pdfrwt>
<totfact> 0.19038701E+04</totfact>
</mgrwt>
</event>
<event>
 6      1 +1.8175624e-03 4.33917900e+02 7.81860800e-03 1.03262900e-01
       -2 -1    0    0    0  501 -0.0000000000e+00 +0.0000000000e+00 +6.7519121088e+01 6.7519121136e+01 2.5500000000e-03 0.0000e+00 1.0000e+00
        2 -1    0    0  501    0 +0.0000000000e+00 -0.0000000000e+00 -6.9715341390e+02 6.9715341390e+02 2.5500000000e-03 0.0000e+00 -1.0000e+00
      -13  1    1    2    0    0 -1.7242831795e+01 +1.8239090178e+01 -1.0114012475e+01 2.7060747795e+01 1.0566000000e-01 0.0000e+00 -1.0000e+00
       13  1    1    2    0    0 -5.6773557431e+01 -1.4113488599e+02 -1.7296334171e+02 2.3034457147e+02 1.0566000000e-01 0.0000e+00 1.0000e+00
      -13  1    1    2    0    0 +1.3529321877e+02 +1.1219407587e+02 -2.9423057373e+02 3.4272935005e+02 1.0566000000e-01 0.0000e+00 1.0000e+00
       13  1    1    2    0    0 -6.1276829543e+01 +1.0701719946e+01 -1.5232636490e+02 1.6453786572e+02 1.0566000000e-01 0.0000e+00 -1.0000e+00
<mgrwt>
<rscale>  0 0.43391790E+03</rscale>
<asrwt>0</asrwt>
<pdfrwt beam="1">  1        2 0.17428833E+00 0.43391790E+03</pdfrwt>
<pdfrwt beam="2">  1       -2 0.16879782E-01 0.43391790E+03</pdfrwt>
<totfact> 0.60888210E+02</totfact>
</mgrwt>
</event>
<event>
 6      1 +1.8175624e-03 3.72504900e+02 7.81860800e-03 1.05373900e-01
       -2 -1    0    0    0  501 -0.0000000000e+00 +0.0000000000e+00 +9.7877887554e+01 9.7877887587e+01 2.5500000000e-03 0.0000e+00 -1.0000e+00
        2 -1    0    0  501    0 +0.0000000000e+00 -0.0000000000e+00 -3.5442104245e+02 3.5442104246e+02 2.5500000000e-03 0.0000e+00 1.0000e+00
      -13  1    1    2    0    0 -6.0142031362e+01 +2.5943990607e+01 +6.5498891021e+01 9.2629749400e+01 1.0566000000e-01 0.0000e+00 -1.0000e+00
       13  1    1    2    0    0 -2.9494779523e+01 -1.1370551756e+01 -9.6781946405e+01 1.0181349508e+02 1.0566000000e-01 0.0000e+00 1.0000e+00
      -13  1    1    2    0    0 +5.0139360497e+01 +2.8902767821e+01 -6.4281347396e+01 8.6495249846e+01 1.0566000000e-01 0.0000e+00 -1.0000e+00
       13  1    1    2    0    0 +3.9497450388e+01 -4.3476206672e+01 -1.6097875211e+02 1.7136043572e+02 1.0566000000e-01 0.0000e+00 1.0000e+00
<mgrwt>
<rscale>  0 0.37250494E+03</rscale>
<asrwt>0</asrwt>
<pdfrwt beam="1">  1        2 0.88605257E-01 0.37250494E+03</pdfrwt>
<pdfrwt beam="2">  1       -2 0.24469473E-01 0.37250494E+03</pdfrwt>
<totfact> 0.78308909E+02</totfact>
</mgrwt>
</event>
<event>
 6      1 +1.8175624e-03 1.98444600e+02 7.81860800e-03 1.15105800e-01
        2 -1    0    0  501    0 +0.0000000000e+00 +0.0000000000e+00 +3.0743555911e+02 3.0743555913e+02 2.5500000000e-03 0.0000e+00 -1.0000e+00
       -2 -1    0    0    0  501 -0.0000000000e+00 -0.0000000000e+00 -3.2023179525e+01 3.2023179626e+01 2.5500000000e-03 0.0000e+00 1.0000e+00
      -13  1    1    2    0    0 +3.5305721164e+01 -3.0388039264e+01 +5.4796347731e+01 7.1920635188e+01 1.0566000000e-01 0.0000e+00 1.0000e+00
       13  1    1    2    0    0 -1.9767764060e+01 +5.1914125850e+01 +1.4246294513e+02 1.5291024445e+02 1.0566000000e-01 0.0000e+00 -1.0000e+00
      -13  1    1    2    0    0 -1.3181374268e+01 +1.4849999529e+01 -7.7462318670e+00 2.1313995068e+01 1.0566000000e-01 0.0000e+00 1.0000e+00
       13  1    1    2    0    0 -2.3565828371e+00 -3.6376086115e+01 +8.5899318595e+01 9.3313864044e+01 1.0566000000e-01 0.0000e+00 -1.0000e+00
<mgrwt>
<rscale>  0 0.19844459E+03</rscale>
<asrwt>0</asrwt>
<pdfrwt beam="1">  1        2 0.76858890E-01 0.19844459E+03</pdfrwt>
<pdfrwt beam="2">  1       -2 0.80057949E-02 0.19844459E+03</pdfrwt>
<totfact> 0.57716515E+03</totfact>
</mgrwt>
</event>
<event>
 6      1 +1.8175624e-03 2.70752100e+02 7.81860800e-03 1.10085000e-01
        1 -1    0    0  501    0 +0.0000000000e+00 +0.0000000000e+00 +4.4651560797e+02 4.4651560799e+02 5.0400000000e-03 0.0000e+00 1.0000e+00
       -1 -1    0    0    0  501 -0.0000000000e+00 -0.0000000000e+00 -4.1043746086e+01 4.1043746396e+01 5.0400000000e-03 0.0000e+00 -1.0000e+00
      -13  1    1    2    0    0 +4.4381260702e+00 -3.7123970922e+01 +9.2280894320e+00 3.8510452849e+01 1.0566000000e-01 0.0000e+00 -1.0000e+00
       13  1    1    2    0    0 +3.5039206219e+01 -1.9780768339e+01 +1.1368966316e+01 4.1812549882e+01 1.0566000000e-01 0.0000e+00 -1.0000e+00
      -13  1    1    2    0    0 -7.7832530108e+01 +2.1522606537e+01 +2.2415674388e+02 2.3825906557e+02 1.0566000000e-01 0.0000e+00 1.0000e+00
       13  1    1    2    0    0 +3.8355197819e+01 +3.5382132724e+01 +1.6071806225e+02 1.6897728609e+02 1.0566000000e-01 0.0000e+00 1.0000e+00
<mgrwt>
<rscale>  0 0.27075209E+03</rscale>
<asrwt>0</asrwt>
<pdfrwt beam="1">  1        1 0.11162890E+00 0.27075209E+03</pdfrwt>
<pdfrwt beam="2">  1       -1 0.10260937E-01 0.27075209E+03</pdfrwt>
<totfact> 0.15647547E+03</totfact>
</mgrwt>
</event>
<event>
 6      1 +1.8175624e-03 3.08337900e+02 7.81860800e-03 1.08114500e-01
       -2 -1    0    0    0  501 -0.0000000000e+00 +0.0000000000e+00 +9.3886847237e+01 9.3886847272e+01 2.5500000000e-03 0.0000e+00 1.0000e+00
        2 -1    0    0  501    0 +0.0000000000e+00 -0.0000000000e+00 -2.5315642433e+02 2.5315642434e+02 2.5500000000e-03 0.0000e+00 -1.0000e+00
      -13  1    1    2    0    0 -1.1905693634e+02 +5.7319586995e+01 -1.7559618166e+01 1.3329831393e+02 1.0566000000e-01 0.0000e+00 1.0000e+00
       13  1    1    2    0    0 +9.7587299629e+01 -3.1662880663e+01 -7.5503521324e+01 1.2738371936e+02 1.0566000000e-01 0.0000e+00 -1.0000e+00
      -13  1    1    2    0    0 +3.2143648864e+01 -5.8664530480e+00 -4.3504729756e+01 5.4408658400e+01 1.0566000000e-01 0.0000e+00 1.0000e+00
       13  1    1    2    0    0 -1.0674012154e+01 -1.9790253284e+01 -2.2701707846e+01 3.1952579922e+01 1.0566000000e-01 0.0000e+00 -1.0000e+00
<mgrwt>
<rscale>  0 0.30833786E+03</rscale>
<asrwt>0</asrwt>
<pdfrwt beam="1">  1        2 0.63289105E-01 0.30833786E+03</pdfrwt>
<pdfrwt beam="2">  1       -2 0.23471712E-01 0.30833786E+03</pdfrwt>
<totfact> 0.12326667E+03</totfact>
</mgrwt>
</event>
<event>
 7      1 +1.8175624e-03 9.29746000e+01 7.81860800e-03 1.29580400e-01
       -1 -1    0    0    0  501 -0.0000000000e+00 +0.0000000000e+00 +1.8068741924e+01 1.8068742627e+01 5.0400000000e-03 0.0000e+00 1.0000e+00
        1 -1    0    0  501    0 +0.0000000000e+00 -0.0000000000e+00 -1.1960263097e+02 1.1960263107e+02 5.0400000000e-03 0.0000e+00 -1.0000e+00
       23  2    1    2    0    0 +3.5527136788e-15 +0.0000000000e+00 -1.0153388904e+02 1.3767137370e+02 9.2974601436e+01 0.0000e+00 0.0000e+00
      -13  1    3    3    0    0 -1.9219098061e+01 -7.9110257152e+00 -1.6147844718e+01 2.6319614572e+01 1.0566000000e-01 0.0000e+00 -1.0000e+00
       13  1    3    3    0    0 -1.7482465467e+01 +1.1164491268e+01 -3.9383278888e+01 4.4512203766e+01 1.0566000000e-01 0.0000e+00 1.0000e+00
      -13  1    3    3    0    0 +2.6315742934e+01 +8.9051655916e-01 -8.4446248838e+00 2.7652019807e+01 1.0566000000e-01 0.0000e+00 1.0000e+00
       13  1    3    3    0    0 +1.0385820593e+01 -4.1439821116e+00 -3.7558140551e+01 3.9187535554e+01 1.0566000000e-01 0.0000e+00 -1.0000e+00
<mgrwt>
<rscale>  0 0.92974601E+02</rscale>
<asrwt>0</asrwt>
<pdfrwt beam="1">  1        1 0.29900656E-01 0.92974601E+02</pdfrwt>
<pdfrwt beam="2">  1       -1 0.45171859E-02 0.92974601E+02</pdfrwt>
<totfact> 0.27617297E+04</totfact>
</mgrwt>
</event>
<event>
 6      1 +1.8175624e-03 3.02784600e+02 7.81860800e-03 1.08385700e-01
       -1 -1    0    0    0  501 -0.0000000000e+00 +0.0000000000e+00 +6.6653668225e+01 6.6653668416e+01 5.0400000000e-03 0.0000e+00 -1.0000e+00
        1 -1    0    0  501    0 +0.0000000000e+00 -0.0000000000e+00 -3.4386155287e+02 3.4386155290e+02 5.0400000000e-03 0.0000e+00 1.0000e+00
      -13  1    1    2    0    0 -2.7059292711e+00 +3.2897033389e+01 -3.2725626265e+00 3.3170132487e+01 1.0566000000e-01 0.0000e+00 -1.0000e+00
       13  1    1    2    0    0 -1.0262984127e+02 +2.1672127388e+01 -1.0969600715e+02 1.5177546104e+02 1.0566000000e-01 0.0000e+00 1.0000e+00
      -13  1    1    2    0    0 +5.9840095859e+01 +2.2414398779e+01 -8.3054296930e+01 1.0479155380e+02 1.0566000000e-01 0.0000e+00 1.0000e+00
       13  1    1    2    0    0 +4.5495674682e+01 -7.6983559556e+01 -8.1185017937e+01 1.2077807400e+02 1.0566000000e-01 0.0000e+00 -1.0000e+00
<mgrwt>
<rscale>  0 0.30278464E+03</rscale>
<asrwt>0</asrwt>
<pdfrwt beam="1">  1        1 0.85965383E-01 0.30278464E+03</pdfrwt>
<pdfrwt beam="2">  1       -1 0.16663418E-01 0.30278464E+03</pdfrwt>
<totfact> 0.10554570E+03</totfact>
</mgrwt>
</event>
<event>
 6      1 +1.8175624e-03 3.50608500e+02 7.81860800e-03 1.06236600e-01
        3 -1    0    0  501    0 +0.0000000000e+00 +0.0000000000e+00 +2.8970990901e+02 2.8970992662e+02 1.0100000000e-01 0.0000e+00 -1.0000e+00
       -3 -1    0    0    0  501 -0.0000000000e+00 -0.0000000000e+00 -1.0607702609e+02 1.0607707418e+02 1.0100000000e-01 0.0000e+00 1.0000e+00
      -13  1    1    2    0    0 -7.2136854731e+01 +3.5877172750e+01 -3.2373554491e+01 8.6827158939e+01 1.0566000000e-01 0.0000e+00 1.0000e+00
       13  1    1    2    0    0 +1.0679658976e+00 +4.9752110655e+01 -3.1059766325e+00 4.9860518656e+01 1.0566000000e-01 0.0000e+00 -1.0000e+00
      -13  1    1    2    0    0 +4.2651540006e+01 -8.8268778901e+01 +1.1484450099e+02 1.5099603228e+02 1.0566000000e-01 0.0000e+00 -1.0000e+00
       13  1    1    2    0    0 +2.8417348827e+01 +2.6394954962e+00 +1.0426791305e+02 1.0810329092e+02 1.0566000000e-01 0.0000e+00 1.0000e+00
<mgrwt>
<rscale>  0 0.35060849E+03</rscale>
<asrwt>0</asrwt>
<pdfrwt beam="1">  1        3 0.72427485E-01 0.35060849E+03</pdfrwt>
<pdfrwt beam="2">  1       -3 0.26519265E-01 0.35060849E+03</pdfrwt>
<totfact> 0.63402398E+01</totfact>
</mgrwt>
</event>
<event>
 6      1 +1.8175624e-03 6.04323900e+02 7.81860800e-03 9.89647600e-02
       -1 -1    0    0    0  501 -0.0000000000e+00 +0.0000000000e+00 +1.1828987300e+02 1.1828987311e+02 5.0400000000e-03 0.0000e+00 1.0000e+00
        1 -1    0    0  501    0 +0.0000000000e+00 -0.0000000000e+00 -7.7184840358e+02 7.7184840360e+02 5.0400000000e-03 0.0000e+00 -1.0000e+00
      -13  1    1    2    0    0 +2.5466786971e+01 -9.4514891642e+01 -1.3196818142e+02 1.6430835052e+02 1.0566000000e-01 0.0000e+00 1.0000e+00
       13  1    1    2    0    0 +3.6533308615e+01 -4.6703014844e+01 -6.9684840801e+01 9.1497772843e+01 1.0566000000e-01 0.0000e+00 -1.0000e+00
      -13  1    1    2    0    0 -5.6292802201e+01 -1.4350685087e+02 -2.1106292283e+02 2.6136308918e+02 1.0566000000e-01 0.0000e+00 1.0000e+00
       13  1    1    2    0    0 -5.7072933847e+00 +2.8472475736e+02 -2.4084258553e+02 3.7296906416e+02 1.0566000000e-01 0.0000e+00 -1.0000e+00
<mgrwt>
<rscale>  0 0.60432392E+03</rscale>
<asrwt>0</asrwt>
<pdfrwt beam="1">  1        1 0.19296209E+00 0.60432392E+03</pdfrwt>
<pdfrwt beam="2">  1       -1 0.29572470E-01 0.60432392E+03</pdfrwt>
<totfact> 0.10560457E+02</totfact>
</mgrwt>
</event>
<event>
 6      1 +1.8175624e-03 3.09860900e+02 7.81860800e-03 1.08041300e-01
       -2 -1    0    0    0  501 -0.0000000000e+00 +0.0000000000e+00 +5.6254892146e+01 5.6254892204e+01 2.5500000000e-03 0.0000e+00 1.0000e+00
        2 -1    0    0  501    0 +0.0000000000e+00 -0.0000000000e+00 -4.2669076230e+02 4.2669076231e+02 2.5500000000e-03 0.0000e+00 -1.0000e+00
      -13  1    1    2    0    0 -3.3172591776e+01 -1.4073410354e+01 -9.0306304731e+01 9.7230250243e+01 1.0566000000e-01 0.0000e+00 -1.0000e+00
       13  1    1    2    0    0 +7.0567130842e+00 -5.3061953674e+01 +5.3441100378e+00 5.3795341837e+01 1.0566000000e-01 0.0000e+00 1.0000e+00
      -13  1    1    2    0    0 +6.9763333602e+01 -1.9154364114e+01 -1.1258341566e+02 1.3382394787e+02 1.0566000000e-01 0.0000e+00 1.0000e+00
       13  1    1    2    0    0 -4.3647454910e+01 +8.6289728142e+01 -1.7289025980e+02 1.9809611456e+02 1.0566000000e-01 0.0000e+00 -1.0000e+00
<mgrwt>
<rscale>  0 0.30986089E+03</rscale>
<asrwt>0</asrwt>
<pdfrwt beam="1">  1        2 0.10667268E+00 0.30986089E+03</pdfrwt>
<pdfrwt beam="2">  1       -2 0.14063724E-01 0.30986089E+03</pdfrwt>
<totfact> 0.16178710E+03</totfact>
</mgrwt>
</event>
<event>
 6      1 +1.8175624e-03 3.75999200e+02 7.81860800e-03 1.05242200e-01
       -2 -1    0    0    0  501 -0.0000000000e+00 +0.0000000000e+00 +9.7498135252e+01 9.7498135285e+01 2.5500000000e-03 0.0000e+00 1.0000e+00
        2 -1    0    0  501    0 +0.0000000000e+00 -0.0000000000e+00 -3.6250804622e+02 3.6250804623e+02 2.5500000000e-03 0.0000e+00 -1.0000e+00
      -13  1    1    2    0    0 -1.2456782240e+00 +5.2415124796e+01 +2.4806175266e+01 5.8002194070e+01 1.0566000000e-01 0.0000e+00 1.0000e+00
       13  1    1    2    0    0 -4.5640128005e+01 -9.4812543420e+00 -2.6066401623e+01 5.3407714104e+01 1.0566000000e-01 0.0000e+00 -1.0000e+00
      -13  1    1    2    0    0 -8.5603048070e+01 +8.0100144592e+00 -9.7580486462e+01 1.3005385297e+02 1.0566000000e-01 0.0000e+00 1.0000e+00
       13  1    1    2    0    0 +1.3248885430e+02 -5.0943884913e+01 -1.6616919815e+02 2.1854242037e+02 1.0566000000e-01 0.0000e+00 -1.0000e+00
<mgrwt>
<rscale>  0 0.37599925E+03</rscale>
<asrwt>0</asrwt>
<pdfrwt beam="1">  1        2 0.90627008E-01 0.37599925E+03</pdfrwt>
<pdfrwt beam="2">  1       -2 0.24374535E-01 0.37599925E+03</pdfrwt>
<totfact> 0.76788605E+02</totfact>
</mgrwt>
</event>
<event>
 6      1 +1.8175624e-03 5.19384600e+02 7.81860800e-03 1.00884000e-01
        2 -1    0    0  501    0 +0.0000000000e+00 +0.0000000000e+00 +6.6880765913e+02 6.6880765914e+02 2.5500000000e-03 0.0000e+00 -1.0000e+00
       -2 -1    0    0    0  501 -0.0000000000e+00 -0.0000000000e+00 -1.0083630841e+02 1.0083630844e+02 2.5500000000e-03 0.0000e+00 1.0000e+00
      -13  1    1    2    0    0 +1.0763220181e+02 -3.8282686086e+00 +1.2533143929e+02 1.6524928848e+02 1.0566000000e-01 0.0000e+00 1.0000e+00
       13  1    1    2    0    0 +1.0410710002e+02 +2.6553228896e+01 +2.7509999742e+02 2.9533604925e+02 1.0566000000e-01 0.0000e+00 -1.0000e+00
      -13  1    1    2    0    0 -2.0612591098e+02 +1.7750136002e+01 +9.9218923980e+01 2.2945013520e+02 1.0566000000e-01 0.0000e+00 1.0000e+00
       13  1    1    2    0    0 -5.6133908518e+00 -4.0475096289e+01 +6.8320990032e+01 7.9608494643e+01 1.0566000000e-01 0.0000e+00 -1.0000e+00
<mgrwt>
<rscale>  0 0.51938462E+03</rscale>
<asrwt>0</asrwt>
<pdfrwt beam="1">  1        2 0.16720191E+00 0.51938462E+03</pdfrwt>
<pdfrwt beam="2">  1       -2 0.25209078E-01 0.51938462E+03</pdfrwt>
<totfact> 0.32052807E+02</totfact>
</mgrwt>
</event>
<event>
 6      1 +1.8175624e-03 5.70550600e+02 7.81860800e-03 9.96846100e-02
        1 -1    0    0  501    0 +0.0000000000e+00 +0.0000000000e+00 +4.4882980128e+02 4.4882980131e+02 5.0400000000e-03 0.0000e+00 -1.0000e+00
       -1 -1    0    0    0  501 -0.0000000000e+00 -0.0000000000e+00 -1.8132040569e+02 1.8132040576e+02 5.0400000000e-03 0.0000e+00 1.0000e+00
      -13  1    1    2    0    0 +1.5253074746e+00 -3.5236163157e+01 -3.0068605101e+00 3.5397261632e+01 1.0566000000e-01 0.0000e+00 1.0000e+00
       13  1    1    2    0    0 +6.0735203463e+01 +1.6735881572e+02 -5.2056520949e+01 1.8549293970e+02 1.0566000000e-01 0.0000e+00 1.0000e+00
      -13  1    1    2    0    0 +3.1277176362e+01 +4.3043664689e+01 +6.3757736336e+01 8.3042633254e+01 1.0566000000e-01 0.0000e+00 -1.0000e+00
       13  1    1    2    0    0 -9.3537687300e+01 -1.7516631726e+02 +2.5881504071e+02 3.2621737248e+02 1.0566000000e-01 0.0000e+00 -1.0000e+00
<mgrwt>
<rscale>  0 0.57055062E+03</rscale>
<asrwt>0</asrwt>
<pdfrwt beam="1">  1        1 0.11220745E+00 0.57055062E+03</pdfrwt>
<pdfrwt beam="2">  1       -1 0.45330102E-01 0.57055062E+03</pdfrwt>
<totfact> 0.12739262E+02</totfact>
</mgrwt>
</event>
<event>
 6      1 +1.8175624e-03 4.95995200e+02 7.81860800e-03 1.01483000e-01
       -2 -1    0    0    0  501 -0.0000000000e+00 +0.0000000000e+00 +9.3873720968e+01 9.3873721003e+01 2.5500000000e-03 0.0000e+00 -1.0000e+00
        2 -1    0    0  501    0 +0.0000000000e+00 -0.0000000000e+00 -6.5516526568e+02 6.5516526568e+02 2.5500000000e-03 0.0000e+00 1.0000e+00
      -13  1    1    2    0    0 -1.7089323971e+01 -8.1072499009e+01 -1.1198638248e+02 1.3930454449e+02 1.0566000000e-01 0.0000e+00 1.0000e+00
       13  1    1    2    0    0 +3.0329479958e+01 +2.1167835582e+02 -3.2355616090e+02 3.8783527959e+02 1.0566000000e-01 0.0000e+00 1.0000e+00
      -13  1    1    2    0    0 -2.8917455530e-01 -2.2337652147e+01 -1.0937907153e+02 1.1163712097e+02 1.0566000000e-01 0.0000e+00 -1.0000e+00
       13  1    1    2    0    0 -1.2950981431e+01 -1.0826820466e+02 -1.6369929795e+01 1.1026204164e+02 1.0566000000e-01 0.0000e+00 -1.0000e+00
<mgrwt>
<rscale>  0 0.49599517E+03</rscale>
<asrwt>0</asrwt>
<pdfrwt beam="1">  1        2 0.16379130E+00 0.49599517E+03</pdfrwt>
<pdfrwt beam="2">  1       -2 0.23468432E-01 0.49599517E+03</pdfrwt>
<totfact> 0.37632814E+02</totfact>
</mgrwt>
</event>
<event>
 6      1 +1.8175624e-03 2.65831600e+02 7.81860800e-03 1.10368900e-01
       -2 -1    0    0    0  501 -0.0000000000e+00 +0.0000000000e+00 +1.0132479643e+02 1.0132479646e+02 2.5500000000e-03 0.0000e+00 1.0000e+00
        2 -1    0    0  501    0 +0.0000000000e+00 -0.0000000000e+00 -1.7435624762e+02 1.7435624763e+02 2.5500000000e-03 0.0000e+00 -1.0000e+00
      -13  1    1    2    0    0 +1.9675854241e+01 +2.8476783850e+01 -5.2998011550e+01 6.3299817147e+01 1.0566000000e-01 0.0000e+00 1.0000e+00
       13  1    1    2    0    0 +1.0286524380e+01 +4.7803967040e+01 -1.9671081206e+01 5.2706683148e+01 1.0566000000e-01 0.0000e+00 -1.0000e+00
      -13  1    1    2    0    0 -5.6160140631e+01 -4.4322555084e-01 +4.0875871407e+01 6.9462262214e+01 1.0566000000e-01 0.0000e+00 1.0000e+00
       13  1    1    2    0    0 +2.6197762011e+01 -7.5837525340e+01 -4.1238229841e+01 9.0212281583e+01 1.0566000000e-01 0.0000e+00 -1.0000e+00
<mgrwt>
<rscale>  0 0.26583161E+03</rscale>
<asrwt>0</asrwt>
<pdfrwt beam="1">  1        2 0.43589062E-01 0.26583161E+03</pdfrwt>
<pdfrwt beam="2">  1       -2 0.25331199E-01 0.26583161E+03</pdfrwt>
<totfact> 0.16128330E+03</totfact>
</mgrwt>
</event>
<event>
 6      1 +1.8175624e-03 3.26258800e+02 7.81860800e-03 1.07280400e-01
       -2 -1    0    0    0  501 -0.0000000000e+00 +0.0000000000e+00 +2.0657293702e+02 2.0657293704e+02 2.5500000000e-03 0.0000e+00 1.0000e+00
        2 -1    0    0  501    0 +0.0000000000e+00 -0.0000000000e+00 -1.2882232688e+02 1.2882232690e+02 2.5500000000e-03 0.0000e+00 -1.0000e+00
      -13  1    1    2    0    0 -2.8840244411e+01 -3.0726817042e+01 +7.0961994791e+01 8.2531889909e+01 1.0566000000e-01 0.0000e+00 1.0000e+00
       13  1    1    2    0    0 -1.6890517387e+00 +1.9595477318e+01 -2.4353123443e+01 3.1303696468e+01 1.0566000000e-01 0.0000e+00 -1.0000e+00
      -13  1    1    2    0    0 -6.4328427143e+01 +4.6321695369e+01 +7.6968720720e+01 1.1049000468e+02 1.0566000000e-01 0.0000e+00 1.0000e+00
       13  1    1    2    0    0 +9.4857723293e+01 -3.5190355644e+01 -4.5826981925e+01 1.1106967289e+02 1.0566000000e-01 0.0000e+00 -1.0000e+00
<mgrwt>
<rscale>  0 0.32625883E+03</rscale>
<asrwt>0</asrwt>
<pdfrwt beam="1">  1        2 0.32205582E-01 0.32625883E+03</pdfrwt>
<pdfrwt beam="2">  1       -2 0.51643234E-01 0.32625883E+03</pdfrwt>
<totfact> 0.58560979E+02</totfact>
</mgrwt>
</event>
<event>
 6      1 +1.8175624e-03 3.45048500e+02 7.81860800e-03 1.06466600e-01
        2 -1    0    0  501    0 +0.0000000000e+00 +0.0000000000e+00 +1.9511049107e+02 1.9511049108e+02 2.5500000000e-03 0.0000e+00 1.0000e+00
       -2 -1    0    0    0  501 -0.0000000000e+00 -0.0000000000e+00 -1.5255261310e+02 1.5255261312e+02 2.5500000000e-03 0.0000e+00 -1.0000e+00
      -13  1    1    2    0    0 +3.4245823018e+01 -1.0065556901e+02 +9.5647797165e+01 1.4301339879e+02 1.0566000000e-01 0.0000e+00 1.0000e+00
       13  1    1    2    0    0 -5.0824141564e+01 +6.9857433708e+01 -1.8784260021e+01 8.8408223591e+01 1.0566000000e-01 0.0000e+00 -1.0000e+00
      -13  1    1    2    0    0 -3.3019436658e+01 -1.4716785838e+01 -3.2945382963e+01 4.8910902724e+01 1.0566000000e-01 0.0000e+00 -1.0000e+00
       13  1    1    2    0    0 +4.9597755203e+01 +4.5514921136e+01 -1.3602762166e+00 6.7330579105e+01 1.0566000000e-01 0.0000e+00 1.0000e+00
<mgrwt>
<rscale>  0 0.34504849E+03</rscale>
<asrwt>0</asrwt>
<pdfrwt beam="1">  1        2 0.48777622E-01 0.34504849E+03</pdfrwt>
<pdfrwt beam="2">  1       -2 0.38138154E-01 0.34504849E+03</pdfrwt>
<totfact> 0.67450942E+02</totfact>
</mgrwt>
</event>
<event>
 6      1 +1.8175624e-03 3.87146200e+02 7.81860800e-03 1.04832400e-01
       -3 -1    0    0    0  501 -0.0000000000e+00 +0.0000000000e+00 +1.2449205197e+02 1.2449209294e+02 1.0100000000e-01 0.0000e+00 1.0000e+00
        3 -1    0    0  501    0 +0.0000000000e+00 -0.0000000000e+00 -3.0098729377e+02 3.0098731071e+02 1.0100000000e-01 0.0000e+00 -1.0000e+00
      -13  1    1    2    0    0 +5.7790256246e+01 -8.3056628255e+00 +5.8028655575e+01 8.2316667715e+01 1.0566000000e-01 0.0000e+00 1.0000e+00
       13  1    1    2    0    0 -5.6127003368e+00 +1.9866466110e+01 -4.9430187088e+01 5.3568026288e+01 1.0566000000e-01 0.0000e+00 -1.0000e+00
      -13  1    1    2    0    0 -2.2751980767e-01 -6.3383383337e+01 +2.4172230088e+01 6.7836663538e+01 1.0566000000e-01 0.0000e+00 1.0000e+00
       13  1    1    2    0    0 -5.1950036101e+01 +5.1822580052e+01 -2.0926594037e+02 2.2175804612e+02 1.0566000000e-01 0.0000e+00 -1.0000e+00
<mgrwt>
<rscale>  0 0.38714616E+03</rscale>
<asrwt>0</asrwt>
<pdfrwt beam="1">  1        3 0.75246829E-01 0.38714616E+03</pdfrwt>
<pdfrwt beam="2">  1       -3 0.31123021E-01 0.38714616E+03</pdfrwt>
<totfact> 0.43436598E+01</totfact>
</mgrwt>
</event>
<event>
 6      1 +1.8175624e-03 4.59660600e+02 7.81860800e-03 1.02488000e-01
        2 -1    0    0  501    0 +0.0000000000e+00 +0.0000000000e+00 +5.0261594137e+02 5.0261594138e+02 2.5500000000e-03 0.0000e+00 -1.0000e+00
       -2 -1    0    0    0  501 -0.0000000000e+00 -0.0000000000e+00 -1.0509408128e+02 1.0509408131e+02 2.5500000000e-03 0.0000e+00 1.0000e+00
      -13  1    1    2    0    0 +7.7868104528e+01 -7.6314302368e+01 +7.3048569400e-01 1.0903145978e+02 1.0566000000e-01 0.0000e+00 1.0000e+00
       13  1    1    2    0    0 -8.9656349636e+01 +2.7414082139e+01 +3.7134170255e+02 3.8299407847e+02 1.0566000000e-01 0.0000e+00 -1.0000e+00
      -13  1    1    2    0    0 +7.2941657143e+00 +6.7176706134e+01 +5.0495749045e+01 8.4354884483e+01 1.0566000000e-01 0.0000e+00 1.0000e+00
       13  1    1    2    0    0 +4.4940793939e+00 -1.8276485906e+01 -2.5046077190e+01 3.1329599954e+01 1.0566000000e-01 0.0000e+00 -1.0000e+00
<mgrwt>
<rscale>  0 0.45966057E+03</rscale>
<asrwt>0</asrwt>
<pdfrwt beam="1">  1        2 0.12565398E+00 0.45966057E+03</pdfrwt>
<pdfrwt beam="2">  1       -2 0.26273521E-01 0.45966057E+03</pdfrwt>
<totfact> 0.44662955E+02</totfact>
</mgrwt>
</event>
<event>
 6      1 +1.8175624e-03 3.43790800e+02 7.81860800e-03 1.06519300e-01
        1 -1    0    0  501    0 +0.0000000000e+00 +0.0000000000e+00 +9.9456116054e+02 9.9456116055e+02 5.0400000000e-03 0.0000e+00 -1.0000e+00
       -1 -1    0    0    0  501 -0.0000000000e+00 -0.0000000000e+00 -2.9709613481e+01 2.9709613909e+01 5.0400000000e-03 0.0000e+00 1.0000e+00
      -13  1    1    2    0    0 -6.7938860642e+00 +1.4821008720e+01 +9.3621573187e+01 9.5030675665e+01 1.0566000000e-01 0.0000e+00 -1.0000e+00
       13  1    1    2    0    0 +1.4817241195e+01 +1.1474528341e+01 +5.9426020608e+01 6.2311142877e+01 1.0566000000e-01 0.0000e+00 1.0000e+00
      -13  1    1    2    0    0 +2.1398092115e+01 -1.4447246391e+02 +6.3928425571e+02 6.5575494046e+02 1.0566000000e-01 0.0000e+00 -1.0000e+00
       13  1    1    2    0    0 -2.9421447246e+01 +1.1817692685e+02 +1.7251969755e+02 2.1117401546e+02 1.0566000000e-01 0.0000e+00 1.0000e+00
<mgrwt>
<rscale>  0 0.34379080E+03</rscale>
<asrwt>0</asrwt>
<pdfrwt beam="1">  1        1 0.24864029E+00 0.34379080E+03</pdfrwt>
<pdfrwt beam="2">  1       -1 0.74274034E-02 0.34379080E+03</pdfrwt>
<totfact> 0.57489450E+02</totfact>
</mgrwt>
</event>
<event>
 6      1 +1.8175624e-03 2.31442100e+02 7.81860800e-03 1.12562900e-01
        2 -1    0    0  501    0 +0.0000000000e+00 +0.0000000000e+00 +7.7341890585e+01 7.7341890627e+01 2.5500000000e-03 0.0000e+00 1.0000e+00
       -2 -1    0    0    0  501 -0.0000000000e+00 -0.0000000000e+00 -1.7314500270e+02 1.7314500272e+02 2.5500000000e-03 0.0000e+00 -1.0000e+00
      -13  1    1    2    0    0 -1.2843033064e+00 +3.9825944987e+01 -1.1501909084e+02 1.2172574811e+02 1.0566000000e-01 0.0000e+00 -1.0000e+00
       13  1    1    2    0    0 -3.1861981931e+01 -2.0387612036e+01 -1.4468945359e+01 4.0499409390e+01 1.0566000000e-01 0.0000e+00 -1.0000e+00
      -13  1    1    2    0    0 +5.4582325797e+01 -1.6348161823e+01 +3.4463125047e+01 6.6589870374e+01 1.0566000000e-01 0.0000e+00 1.0000e+00
       13  1    1    2    0    0 -2.1436040560e+01 -3.0901711279e+00 -7.7820095964e-01 2.1671865477e+01 1.0566000000e-01 0.0000e+00 1.0000e+00
<mgrwt>
<rscale>  0 0.23144210E+03</rscale>
<asrwt>0</asrwt>
<pdfrwt beam="1">  1        2 0.19335473E-01 0.23144210E+03</pdfrwt>
<pdfrwt beam="2">  1       -2 0.43286250E-01 0.23144210E+03</pdfrwt>
<totfact> 0.14674986E+03</totfact>
</mgrwt>
</event>
<event>
 6      1 +1.8175624e-03 3.96329700e+02 7.81860800e-03 1.04505800e-01
       -1 -1    0    0    0  501 -0.0000000000e+00 +0.0000000000e+00 +4.2962668625e+01 4.2962668920e+01 5.0400000000e-03 0.0000e+00 -1.0000e+00
        1 -1    0    0  501    0 +0.0000000000e+00 -0.0000000000e+00 -9.1403313689e+02 9.1403313690e+02 5.0400000000e-03 0.0000e+00 1.0000e+00
      -13  1    1    2    0    0 +1.3445138599e+02 -2.9930515372e+01 -4.3015032470e+02 4.5166616428e+02 1.0566000000e-01 0.0000e+00 1.0000e+00
       13  1    1    2    0    0 -8.4977139218e+00 -1.7077898095e+01 +1.1594570700e+01 2.2322880168e+01 1.0566000000e-01 0.0000e+00 -1.0000e+00
      -13  1    1    2    0    0 -7.0140101854e+01 -2.5384808986e+01 -2.4839945368e+02 2.5935751805e+02 1.0566000000e-01 0.0000e+00 1.0000e+00
       13  1    1    2    0    0 -5.5813570211e+01 +7.2393222453e+01 -2.0411526058e+02 2.2364924333e+02 1.0566000000e-01 0.0000e+00 -1.0000e+00
<mgrwt>
<rscale>  0 0.39632968E+03</rscale>
<asrwt>0</asrwt>
<pdfrwt beam="1">  1        1 0.22850822E+00 0.39632968E+03</pdfrwt>
<pdfrwt beam="2">  1       -1 0.10740670E-01 0.39632968E+03</pdfrwt>
<totfact> 0.39425956E+02</totfact>
</mgrwt>
</event>
<event>
 6      1 +1.8175624e-03 1.71738600e+02 7.81860800e-03 1.17604700e-01
       -1 -1    0    0    0  501 -0.0000000000e+00 +0.0000000000e+00 +1.5492654423e+01 1.5492655243e+01 5.0400000000e-03 0.0000e+00 -1.0000e+00
        1 -1    0    0  501    0 +0.0000000000e+00 -0.0000000000e+00 -4.7593740279e+02 4.7593740282e+02 5.0400000000e-03 0.0000e+00 1.0000e+00
      -13  1    1    2    0    0 +1.9495790172e+01 -2.7659253435e+01 -1.4214035016e+02 1.4611300573e+02 1.0566000000e-01 0.0000e+00 -1.0000e+00
       13  1    1    2    0    0 -3.3964470256e+01 +5.6003709648e+01 -1.7592210189e+02 1.8771946578e+02 1.0566000000e-01 0.0000e+00 1.0000e+00
      -13  1    1    2    0    0 -1.2583103029e+01 -3.2959456157e+01 -4.9777203984e+01 6.1011813877e+01 1.0566000000e-01 0.0000e+00 -1.0000e+00
       13  1    1    2    0    0 +2.7051783112e+01 +4.6149999441e+00 -9.2605092331e+01 9.6585772677e+01 1.0566000000e-01 0.0000e+00 1.0000e+00
<mgrwt>
<rscale>  0 0.17173857E+03</rscale>
<asrwt>0</asrwt>
<pdfrwt beam="1">  1        1 0.11898430E+00 0.17173857E+03</pdfrwt>
<pdfrwt beam="2">  1       -1 0.38731653E-02 0.17173857E+03</pdfrwt>
<totfact> 0.61314451E+03</totfact>
</mgrwt>
</event>
<event>
 6      1 +1.8175624e-03 8.24004600e+02 7.81860800e-03 9.52590700e-02
       -2 -1    0    0    0  501 -0.0000000000e+00 +0.0000000000e+00 +4.1144643280e+02 4.1144643281e+02 2.5500000000e-03 0.0000e+00 -1.0000e+00
        2 -1    0    0  501    0 +0.0000000000e+00 -0.0000000000e+00 -4.1255891999e+02 4.1255892000e+02 2.5500000000e-03 0.0000e+00 1.0000e+00
      -13  1    1    2    0    0 -1.1060096863e+02 +3.9301004475e+01 -4.4690259311e+01 1.2559607341e+02 1.0566000000e-01 0.0000e+00 1.0000e+00
       13  1    1    2    0    0 +1.0590803044e+01 -3.3456159251e+01 -1.5510165233e+01 3.8367383160e+01 1.0566000000e-01 0.0000e+00 -1.0000e+00
      -13  1    1    2    0    0 +1.3705282427e+02 -2.6188197883e+02 +2.0810709710e+02 3.6148889679e+02 1.0566000000e-01 0.0000e+00 -1.0000e+00
       13  1    1    2    0    0 -3.7042658689e+01 +2.5603713361e+02 -1.4901915974e+02 2.9855299945e+02 1.0566000000e-01 0.0000e+00 1.0000e+00
<mgrwt>
<rscale>  0 0.82400460E+03</rscale>
<asrwt>0</asrwt>
<pdfrwt beam="1">  1        2 0.10313973E+00 0.82400460E+03</pdfrwt>
<pdfrwt beam="2">  1       -2 0.10286161E+00 0.82400460E+03</pdfrwt>
<totfact> 0.33654214E+01</totfact>
</mgrwt>
</event>
<event>
 6      1 +1.8175624e-03 3.20794300e+02 7.81860800e-03 1.07528400e-01
       -2 -1    0    0    0  501 -0.0000000000e+00 +0.0000000000e+00 +2.9309793632e+02 2.9309793633e+02 2.5500000000e-03 0.0000e+00 -1.0000e+00
        2 -1    0    0  501    0 +0.0000000000e+00 -0.0000000000e+00 -8.7776946455e+01 8.7776946492e+01 2.5500000000e-03 0.0000e+00 1.0000e+00
      -13  1    1    2    0    0 -8.1035475044e+01 +1.6448904930e+01 +6.9250260718e+01 1.0785603582e+02 1.0566000000e-01 0.0000e+00 -1.0000e+00
       13  1    1    2    0    0 +1.0372701029e+02 -6.4877836042e+01 +6.7903965202e+01 1.3992635895e+02 1.0566000000e-01 0.0000e+00 1.0000e+00
      -13  1    1    2    0    0 -3.9605134384e+00 +2.0748236741e+01 +9.0475373332e+01 9.2908446000e+01 1.0566000000e-01 0.0000e+00 -1.0000e+00
       13  1    1    2    0    0 -1.8731021812e+01 +2.7680694371e+01 -2.2308609388e+01 4.0184042055e+01 1.0566000000e-01 0.0000e+00 1.0000e+00
<mgrwt>
<rscale>  0 0.32079428E+03</rscale>
<asrwt>0</asrwt>
<pdfrwt beam="1">  1        2 0.21944237E-01 0.32079428E+03</pdfrwt>
<pdfrwt beam="2">  1       -2 0.73274483E-01 0.32079428E+03</pdfrwt>
<totfact> 0.43256539E+02</totfact>
</mgrwt>
</event>
<event>
 6      1 +1.8175624e-03 3.43040900e+02 7.81860800e-03 1.06550800e-01
        2 -1    0    0  501    0 +0.0000000000e+00 +0.0000000000e+00 +2.5296676734e+02 2.5296676735e+02 2.5500000000e-03 0.0000e+00 1.0000e+00
       -2 -1    0    0    0  501 -0.0000000000e+00 -0.0000000000e+00 -1.1629697943e+02 1.1629697946e+02 2.5500000000e-03 0.0000e+00 -1.0000e+00
      -13  1    1    2    0    0 +1.5661756963e+01 +2.1783898073e+01 -8.6220176669e+01 9.0298166511e+01 1.0566000000e-01 0.0000e+00 -1.0000e+00
       13  1    1    2    0    0 -6.9573520239e+01 -2.0432887936e+01 +8.2616667514e+01 1.0992498598e+02 1.0566000000e-01 0.0000e+00 1.0000e+00
      -13  1    1    2    0    0 +2.7500968974e+01 +1.8980611019e+01 +1.2990636238e+02 1.3413515960e+02 1.0566000000e-01 0.0000e+00 1.0000e+00
       13  1    1    2    0    0 +2.6410794301e+01 -2.0331621156e+01 +1.0366934678e+01 3.4905434722e+01 1.0566000000e-01 0.0000e+00 -1.0000e+00
<mgrwt>
<rscale>  0 0.34304094E+03</rscale>
<asrwt>0</asrwt>
<pdfrwt beam="1">  1        2 0.63241691E-01 0.34304094E+03</pdfrwt>
<pdfrwt beam="2">  1       -2 0.29074245E-01 0.34304094E+03</pdfrwt>
<totfact> 0.84154243E+02</totfact>
</mgrwt>
</event>
<event>
 6      1 +1.8175624e-03 8.20589700e+02 7.81860800e-03 9.53068300e-02
       -2 -1    0    0    0  501 -0.0000000000e+00 +0.0000000000e+00 +2.3626888949e+02 2.3626888950e+02 2.5500000000e-03 0.0000e+00 -1.0000e+00
        2 -1    0    0  501    0 +0.0000000000e+00 -0.0000000000e+00 -7.1250116190e+02 7.1250116190e+02 2.5500000000e-03 0.0000e+00 1.0000e+00
      -13  1    1    2    0    0 +1.2760087713e+02 -2.6259990132e+02 -6.9352520357e+00 2.9204246421e+02 1.0566000000e-01 0.0000e+00 -1.0000e+00
       13  1    1    2    0    0 -2.4161497665e+01 -3.1158620689e-02 -5.9701427719e+01 6.4405361392e+01 1.0566000000e-01 0.0000e+00 1.0000e+00
      -13  1    1    2    0    0 +1.0701425021e+02 +2.8907965909e+01 -1.3608301472e+02 1.7551728775e+02 1.0566000000e-01 0.0000e+00 -1.0000e+00
       13  1    1    2    0    0 -2.1045362968e+02 +2.3372309403e+02 -2.7351257793e+02 4.1680493805e+02 1.0566000000e-01 0.0000e+00 1.0000e+00
<mgrwt>
<rscale>  0 0.82058969E+03</rscale>
<asrwt>0</asrwt>
<pdfrwt beam="1">  1        2 0.17812529E+00 0.82058969E+03</pdfrwt>
<pdfrwt beam="2">  1       -2 0.59067224E-01 0.82058969E+03</pdfrwt>
<totfact> 0.54341003E+01</totfact>
</mgrwt>
</event>
<event>
 6      1 +1.8175624e-03 5.74033700e+02 7.81860800e-03 9.96079200e-02
       -2 -1    0    0    0  501 -0.0000000000e+00 +0.0000000000e+00 +8.1873920247e+01 8.1873920287e+01 2.5500000000e-03 0.0000e+00 1.0000e+00
        2 -1    0    0  501    0 +0.0000000000e+00 -0.0000000000e+00 -1.0061650535e+03 1.0061650535e+03 2.5500000000e-03 0.0000e+00 -1.0000e+00
      -13  1    1    2    0    0 -6.3972088947e+01 +5.1473829170e+01 -1.5113871499e+02 1.7200263250e+02 1.0566000000e-01 0.0000e+00 -1.0000e+00
       13  1    1    2    0    0 +2.7624262909e+01 -2.3974570493e+00 -1.3468539241e+01 3.0826294213e+01 1.0566000000e-01 0.0000e+00 1.0000e+00
      -13  1    1    2    0    0 -4.0664527918e+01 -2.4000399824e+02 -4.7677063142e+02 5.3531838111e+02 1.0566000000e-01 0.0000e+00 1.0000e+00
       13  1    1    2    0    0 +7.7012353956e+01 +1.9092762612e+02 -2.8291324756e+02 3.4989166593e+02 1.0566000000e-01 0.0000e+00 -1.0000e+00
<mgrwt>
<rscale>  0 0.57403372E+03</rscale>
<asrwt>0</asrwt>
<pdfrwt beam="1">  1        2 0.25154123E+00 0.57403372E+03</pdfrwt>
<pdfrwt beam="2">  1       -2 0.20468483E-01 0.57403372E+03</pdfrwt>
<totfact> 0.22543392E+02</totfact>
</mgrwt>
</event>
<event>
 6      1 +1.8175624e-03 1.64356900e+02 7.81860800e-03 1.18386400e-01
       -2 -1    0    0    0  501 -0.0000000000e+00 +0.0000000000e+00 +1.6545007879e+01 1.6545008076e+01 2.5500000000e-03 0.0000e+00 1.0000e+00
        2 -1    0    0  501    0 +0.0000000000e+00 -0.0000000000e+00 -4.0817731222e+02 4.0817731223e+02 2.5500000000e-03 0.0000e+00 -1.0000e+00
      -13  1    1    2    0    0 +2.2957084886e+01 +2.5675282876e+01 -8.5743484690e+01 9.2402403800e+01 1.0566000000e-01 0.0000e+00 1.0000e+00
       13  1    1    2    0    0 +4.6061551592e+00 -1.2111280695e+01 -6.9035764162e+01 7.0241353082e+01 1.0566000000e-01 0.0000e+00 -1.0000e+00
      -13  1    1    2    0    0 +2.8399583415e+01 +7.2122943275e+00 -1.6175548238e+01 3.3469583990e+01 1.0566000000e-01 0.0000e+00 1.0000e+00
       13  1    1    2    0    0 -5.5962823461e+01 -2.0776296509e+01 -2.2067750725e+02 2.2860897943e+02 1.0566000000e-01 0.0000e+00 -1.0000e+00
<mgrwt>
<rscale>  0 0.16435689E+03</rscale>
<asrwt>0</asrwt>
<pdfrwt beam="1">  1        2 0.10204429E+00 0.16435689E+03</pdfrwt>
<pdfrwt beam="2">  1       -2 0.41362533E-02 0.16435689E+03</pdfrwt>
<totfact> 0.11311010E+04</totfact>
</mgrwt>
</event>
<event>
 7      1 +1.8175624e-03 9.80989800e+01 7.81860800e-03 1.28434500e-01
       -2 -1    0    0    0  501 -0.0000000000e+00 +0.0000000000e+00 +1.0750114014e+01 1.0750114316e+01 2.5500000000e-03 0.0000e+00 1.0000e+00
        2 -1    0    0  501    0 +0.0000000000e+00 -0.0000000000e+00 -2.2379783911e+02 2.2379783913e+02 2.5500000000e-03 0.0000e+00 -1.0000e+00
       23  2    1    2    0    0 +0.0000000000e+00 +0.0000000000e+00 -2.1304772510e+02 2.3454795345e+02 9.8098977032e+01 0.0000e+00 0.0000e+00
      -13  1    3    3    0    0 +8.0361136869e+00 +7.9092517485e+00 -1.3027907405e+01 1.7230000633e+01 1.0566000000e-01 0.0000e+00 1.0000e+00
       13  1    3    3    0    0 -1.9165385898e+01 -2.1185834527e+01 -2.9603109774e+01 4.1140088400e+01 1.0566000000e-01 0.0000e+00 -1.0000e+00
      -13  1    3    3    0    0 +1.1439736108e+01 -1.2786302709e+01 -9.0688115040e+01 9.2296817240e+01 1.0566000000e-01 0.0000e+00 1.0000e+00
       13  1    3    3    0    0 -3.1046389756e-01 +2.6062885488e+01 -7.9728592882e+01 8.3881047172e+01 1.0566000000e-01 0.0000e+00 -1.0000e+00
<mgrwt>
<rscale>  0 0.98098977E+02</rscale>
<asrwt>0</asrwt>
<pdfrwt beam="1">  1        2 0.55949445E-01 0.98098977E+02</pdfrwt>
<pdfrwt beam="2">  1       -2 0.26875293E-02 0.98098977E+02</pdfrwt>
<totfact> 0.39433534E+04</totfact>
</mgrwt>
</event>
<event>
 6      1 +1.8175624e-03 4.74434800e+02 7.81860800e-03 1.02067600e-01
       -2 -1    0    0    0  501 -0.0000000000e+00 +0.0000000000e+00 +3.0933185169e+02 3.0933185170e+02 2.5500000000e-03 0.0000e+00 1.0000e+00
        2 -1    0    0  501    0 +0.0000000000e+00 -0.0000000000e+00 -1.8191495339e+02 1.8191495341e+02 2.5500000000e-03 0.0000e+00 -1.0000e+00
      -13  1    1    2    0    0 -1.3679306923e+01 -2.5299897263e+01 -2.8379306967e+01 4.0405500459e+01 1.0566000000e-01 0.0000e+00 1.0000e+00
       13  1    1    2    0    0 -1.4797531894e+02 -4.5303591106e+01 -4.4210414304e+01 1.6094620927e+02 1.0566000000e-01 0.0000e+00 -1.0000e+00
      -13  1    1    2    0    0 -1.5067729709e+01 -4.3290296647e+00 +5.4816119881e+00 1.6608317508e+01 1.0566000000e-01 0.0000e+00 -1.0000e+00
       13  1    1    2    0    0 +1.7672235557e+02 +7.4932518033e+01 +1.9452500758e+02 2.7328677786e+02 1.0566000000e-01 0.0000e+00 1.0000e+00
<mgrwt>
<rscale>  0 0.47443478E+03</rscale>
<asrwt>0</asrwt>
<pdfrwt beam="1">  1        2 0.45478739E-01 0.47443478E+03</pdfrwt>
<pdfrwt beam="2">  1       -2 0.77332962E-01 0.47443478E+03</pdfrwt>
<totfact> 0.16986807E+02</totfact>
</mgrwt>
</event>
<event>
 6      1 +1.8175624e-03 8.41687200e+02 7.81860800e-03 9.50156300e-02
       -1 -1    0    0    0  501 -0.0000000000e+00 +0.0000000000e+00 +2.0245715614e+02 2.0245715620e+02 5.0400000000e-03 0.0000e+00 1.0000e+00
        1 -1    0    0  501    0 +0.0000000000e+00 -0.0000000000e+00 -8.7479910156e+02 8.7479910157e+02 5.0400000000e-03 0.0000e+00 -1.0000e+00
      -13  1    1    2    0    0 -1.9536938030e+02 +2.2683180433e+02 -4.0729560944e+02 5.0548153957e+02 1.0566000000e-01 0.0000e+00 -1.0000e+00
       13  1    1    2    0    0 +2.8273639377e+02 -2.2222203055e+02 -2.3650227369e+02 4.3041356373e+02 1.0566000000e-01 0.0000e+00 1.0000e+00
      -13  1    1    2    0    0 +9.4684671569e+00 -2.9198727555e+01 -2.7854700369e+01 4.1450127356e+01 1.0566000000e-01 0.0000e+00 -1.0000e+00
       13  1    1    2    0    0 -9.6835480619e+01 +2.4588953768e+01 -6.8936192328e-01 9.9911027109e+01 1.0566000000e-01 0.0000e+00 1.0000e+00
<mgrwt>
<rscale>  0 0.84168721E+03</rscale>
<asrwt>0</asrwt>
<pdfrwt beam="1">  1        1 0.21869977E+00 0.84168721E+03</pdfrwt>
<pdfrwt beam="2">  1       -1 0.50614291E-01 0.84168721E+03</pdfrwt>
<totfact> 0.29690373E+01</totfact>
</mgrwt>
</event>
<event>
 6      1 +1.8175624e-03 2.15276400e+02 7.81860800e-03 1.13745500e-01
        1 -1    0    0  501    0 +0.0000000000e+00 +0.0000000000e+00 +1.9047129738e+02 1.9047129745e+02 5.0400000000e-03 0.0000e+00 1.0000e+00
       -1 -1    0    0    0  501 -0.0000000000e+00 -0.0000000000e+00 -6.0827940324e+01 6.0827940533e+01 5.0400000000e-03 0.0000e+00 -1.0000e+00
      -13  1    1    2    0    0 +2.4031360765e+01 -3.2492274825e+01 +1.8938993182e+01 4.4631276593e+01 1.0566000000e-01 0.0000e+00 -1.0000e+00
       13  1    1    2    0    0 +1.6015731330e+01 -3.2108192773e+01 +4.1299430168e+01 5.4709174637e+01 1.0566000000e-01 0.0000e+00 1.0000e+00
      -13  1    1    2    0    0 -1.6926522842e+00 +1.7158980135e+01 -3.0420788934e+01 3.4967574043e+01 1.0566000000e-01 0.0000e+00 -1.0000e+00
       13  1    1    2    0    0 -3.8354439811e+01 +4.7441487463e+01 +9.9825722644e+01 1.1699121271e+02 1.0566000000e-01 0.0000e+00 1.0000e+00
<mgrwt>
<rscale>  0 0.21527635E+03</rscale>
<asrwt>0</asrwt>
<pdfrwt beam="1">  1        1 0.47617824E-01 0.21527635E+03</pdfrwt>
<pdfrwt beam="2">  1       -1 0.15206985E-01 0.21527635E+03</pdfrwt>
<totfact> 0.26188874E+03</totfact>
</mgrwt>
</event>
<event>
 6      1 +1.8175624e-03 2.03142200e+02 7.81860800e-03 1.14711500e-01
        2 -1    0    0  501    0 +0.0000000000e+00 +0.0000000000e+00 +2.1198327600e+02 2.1198327601e+02 2.5500000000e-03 0.0000e+00 1.0000e+00
       -2 -1    0    0    0  501 -0.0000000000e+00 -0.0000000000e+00 -4.8667470225e+01 4.8667470292e+01 2.5500000000e-03 0.0000e+00 -1.0000e+00
      -13  1    1    2    0    0 +3.1460777507e+01 -4.1843081027e+01 +4.0205713357e+01 6.6008594151e+01 1.0566000000e-01 0.0000e+00 -1.0000e+00
       13  1    1    2    0    0 -1.1210710535e+01 +3.1109109487e+00 +8.2037671325e+00 1.4236247990e+01 1.0566000000e-01 0.0000e+00 1.0000e+00
      -13  1    1    2    0    0 -3.7248802499e+01 -2.6650488157e+01 -1.4899550197e+00 4.5825243443e+01 1.0566000000e-01 0.0000e+00 -1.0000e+00
       13  1    1    2    0    0 +1.6998735528e+01 +6.5382658236e+01 +1.1639628030e+02 1.3458066072e+02 1.0566000000e-01 0.0000e+00 1.0000e+00
<mgrwt>
<rscale>  0 0.20314221E+03</rscale>
<asrwt>0</asrwt>
<pdfrwt beam="1">  1        2 0.52995819E-01 0.20314221E+03</pdfrwt>
<pdfrwt beam="2">  1       -2 0.12166868E-01 0.20314221E+03</pdfrwt>
<totfact> 0.44629185E+03</totfact>
</mgrwt>
</event>
<event>
 6      1 +1.8175624e-03 2.74616000e+02 7.81860800e-03 1.09866600e-01
        1 -1    0    0  501    0 +0.0000000000e+00 +0.0000000000e+00 +5.5293232511e+02 5.5293232514e+02 5.0400000000e-03 0.0000e+00 -1.0000e+00
       -1 -1    0    0    0  501 -0.0000000000e+00 -0.0000000000e+00 -3.4097288427e+01 3.4097288800e+01 5.0400000000e-03 0.0000e+00 1.0000e+00
      -13  1    1    2    0    0 -1.4719593065e+01 +4.7519969970e+01 +9.9416048279e+01 1.1116823191e+02 1.0566000000e-01 0.0000e+00 1.0000e+00
       13  1    1    2    0    0 -6.8841122806e+01 -2.6857985185e+01 +3.4162446234e+02 3.4952501482e+02 1.0566000000e-01 0.0000e+00 -1.0000e+00
      -13  1    1    2    0    0 -4.3090614321e+00 -1.0022501586e+01 +6.6552211609e+00 1.2779737134e+01 1.0566000000e-01 0.0000e+00 1.0000e+00
       13  1    1    2    0    0 +8.7869777303e+01 -1.0639483199e+01 +7.1139304910e+01 1.1355663007e+02 1.0566000000e-01 0.0000e+00 -1.0000e+00
<mgrwt>
<rscale>  0 0.27461605E+03</rscale>
<asrwt>0</asrwt>
<pdfrwt beam="1">  1        1 0.13823308E+00 0.27461605E+03</pdfrwt>
<pdfrwt beam="2">  1       -1 0.85243221E-02 0.27461605E+03</pdfrwt>
<totfact> 0.14953681E+03</totfact>
</mgrwt>
</event>
<event>
 6      1 +1.8175624e-03 5.87553100e+02 7.81860800e-03 9.93157100e-02
        1 -1    0    0  501    0 +0.0000000000e+00 +0.0000000000e+00 +3.0962139882e+02 3.0962139886e+02 5.0400000000e-03 0.0000e+00 -1.0000e+00
       -1 -1    0    0    0  501 -0.0000000000e+00 -0.0000000000e+00 -2.7874252654e+02 2.7874252658e+02 5.0400000000e-03 0.0000e+00 1.0000e+00
      -13  1    1    2    0    0 +7.3315736065e+01 +5.0313224962e+01 +7.7564190588e+01 1.1799505323e+02 1.0566000000e-01 0.0000e+00 -1.0000e+00
       13  1    1    2    0    0 +1.8012236236e+01 -6.5308687221e+01 +7.1631530308e+01 9.8593876985e+01 1.0566000000e-01 0.0000e+00 1.0000e+00
      -13  1    1    2    0    0 -1.2825806321e+02 +5.0362328183e+01 -2.1906280729e+02 2.5879532372e+02 1.0566000000e-01 0.0000e+00 1.0000e+00
       13  1    1    2    0    0 +3.6930090909e+01 -3.5366865924e+01 +1.0074595868e+02 1.1297967151e+02 1.0566000000e-01 0.0000e+00 -1.0000e+00
<mgrwt>
<rscale>  0 0.58755306E+03</rscale>
<asrwt>0</asrwt>
<pdfrwt beam="1">  1        1 0.77405349E-01 0.58755306E+03</pdfrwt>
<pdfrwt beam="2">  1       -1 0.69685632E-01 0.58755306E+03</pdfrwt>
<totfact> 0.94338703E+01</totfact>
</mgrwt>
</event>
<event>
 6      1 +1.8175624e-03 2.81946700e+02 7.81860800e-03 1.09463000e-01
       -1 -1    0    0    0  501 -0.0000000000e+00 +0.0000000000e+00 +4.9348672549e+02 4.9348672551e+02 5.0400000000e-03 0.0000e+00 1.0000e+00
        1 -1    0    0  501    0 +0.0000000000e+00 -0.0000000000e+00 -4.0271567875e+01 4.0271568190e+01 5.0400000000e-03 0.0000e+00 -1.0000e+00
      -13  1    1    2    0    0 -2.6957823641e+01 -3.0841310511e+01 +1.3811164694e+01 4.3228117282e+01 1.0566000000e-01 0.0000e+00 1.0000e+00
       13  1    1    2    0    0 +3.7880487785e+01 +4.8797047967e+01 +6.2975069763e+01 8.8215383130e+01 1.0566000000e-01 0.0000e+00 -1.0000e+00
      -13  1    1    2    0    0 -7.1242112305e+00 +6.1072243942e+01 +1.3735723024e+02 1.5049117326e+02 1.0566000000e-01 0.0000e+00 1.0000e+00
       13  1    1    2    0    0 -3.7984529127e+00 -7.9027981399e+01 +2.3907169291e+02 2.5182362003e+02 1.0566000000e-01 0.0000e+00 -1.0000e+00
<mgrwt>
<rscale>  0 0.28194669E+03</rscale>
<asrwt>0</asrwt>
<pdfrwt beam="1">  1        1 0.10067892E-01 0.28194669E+03</pdfrwt>
<pdfrwt beam="2">  1       -1 0.12337168E+00 0.28194669E+03</pdfrwt>
<totfact> 0.39363471E+02</totfact>
</mgrwt>
</event>
<event>
 6      1 +1.8175624e-03 5.73730900e+02 7.81860800e-03 9.96145600e-02
       -2 -1    0    0    0  501 -0.0000000000e+00 +0.0000000000e+00 +7.0765657662e+01 7.0765657708e+01 2.5500000000e-03 0.0000e+00 1.0000e+00
        2 -1    0    0  501    0 +0.0000000000e+00 -0.0000000000e+00 -1.1628774188e+03 1.1628774188e+03 2.5500000000e-03 0.0000e+00 -1.0000e+00
      -13  1    1    2    0    0 +1.0858860157e+02 +8.7823534053e+01 -2.0577954429e+02 2.4869597813e+02 1.0566000000e-01 0.0000e+00 1.0000e+00
       13  1    1    2    0    0 -1.0061124278e+01 -4.0235910047e+00 +1.3300089810e+00 1.0917673481e+01 1.0566000000e-01 0.0000e+00 -1.0000e+00
      -13  1    1    2    0    0 +4.9405579061e+01 -3.5449390762e+01 +1.1167777174e+01 6.1824760079e+01 1.0566000000e-01 0.0000e+00 1.0000e+00
       13  1    1    2    0    0 -1.4793305635e+02 -4.8350552286e+01 -8.9883000301e+02 9.1220466483e+02 1.0566000000e-01 0.0000e+00 -1.0000e+00
<mgrwt>
<rscale>  0 0.57373090E+03</rscale>
<asrwt>0</asrwt>
<pdfrwt beam="1">  1        2 0.29071929E+00 0.57373090E+03</pdfrwt>
<pdfrwt beam="2">  1       -2 0.17691418E-01 0.57373090E+03</pdfrwt>
<totfact> 0.21124046E+02</totfact>
</mgrwt>
</event>
<event>
 6      1 +1.8175624e-03 1.84532300e+02 7.81860800e-03 1.16348700e-01
        3 -1    0    0  501    0 +0.0000000000e+00 +0.0000000000e+00 +6.5557311305e+01 6.5557389108e+01 1.0100000000e-01 0.0000e+00 1.0000e+00
       -3 -1    0    0    0  501 -0.0000000000e+00 -0.0000000000e+00 -1.2985630872e+02 1.2985634800e+02 1.0100000000e-01 0.0000e+00 -1.0000e+00
      -13  1    1    2    0    0 +5.9112568262e+00 +3.9635730263e+01 -2.6912271233e+01 4.8272306530e+01 1.0566000000e-01 0.0000e+00 -1.0000e+00
       13  1    1    2    0    0 +7.1930019786e+00 -6.3894876208e+01 -1.7049764995e+01 6.6520674482e+01 1.0566000000e-01 0.0000e+00 1.0000e+00
      -13  1    1    2    0    0 -1.0382468408e+01 -1.0276770984e+01 -3.8732863193e+01 4.1396298473e+01 1.0566000000e-01 0.0000e+00 -1.0000e+00
       13  1    1    2    0    0 -2.7217903969e+00 +3.4535916929e+01 +1.8395902005e+01 3.9224457622e+01 1.0566000000e-01 0.0000e+00 1.0000e+00
<mgrwt>
<rscale>  0 0.18453229E+03</rscale>
<asrwt>0</asrwt>
<pdfrwt beam="1">  1        3 0.16389343E-01 0.18453229E+03</pdfrwt>
<pdfrwt beam="2">  1       -3 0.32464091E-01 0.18453229E+03</pdfrwt>
<totfact> 0.71216530E+02</totfact>
</mgrwt>
</event>
<event>
 6      1 +1.8175624e-03 2.24011600e+02 7.81860800e-03 1.13092700e-01
        1 -1    0    0  501    0 +0.0000000000e+00 +0.0000000000e+00 +2.1546427274e+01 2.1546427864e+01 5.0400000000e-03 0.0000e+00 -1.0000e+00
       -1 -1    0    0    0  501 -0.0000000000e+00 -0.0000000000e+00 -5.8224489136e+02 5.8224489139e+02 5.0400000000e-03 0.0000e+00 1.0000e+00
      -13  1    1    2    0    0 +1.3348189973e+01 -2.6221200422e+01 -8.8677606947e+01 9.3431550693e+01 1.0566000000e-01 0.0000e+00 1.0000e+00
       13  1    1    2    0    0 -3.9023866872e+01 +8.2054552900e+01 -1.8952016064e+02 2.1017543693e+02 1.0566000000e-01 0.0000e+00 -1.0000e+00
      -13  1    1    2    0    0 -1.0922156568e+01 -2.1263972114e+01 -1.5526505592e+01 2.8504974199e+01 1.0566000000e-01 0.0000e+00 -1.0000e+00
       13  1    1    2    0    0 +3.6597833467e+01 -3.4569380364e+01 -2.6697419091e+02 2.7167935742e+02 1.0566000000e-01 0.0000e+00 1.0000e+00
<mgrwt>
<rscale>  0 0.22401158E+03</rscale>
<asrwt>0</asrwt>
<pdfrwt beam="1">  1        1 0.53866088E-02 0.22401158E+03</pdfrwt>
<pdfrwt beam="2">  1       -1 0.14556117E+00 0.22401158E+03</pdfrwt>
<totfact> 0.61260811E+02</totfact>
</mgrwt>
</event>
<event>
 6      1 +1.8175624e-03 3.41874100e+02 7.81860800e-03 1.06600100e-01
       -2 -1    0    0    0  501 -0.0000000000e+00 +0.0000000000e+00 +1.1982661829e+02 1.1982661832e+02 2.5500000000e-03 0.0000e+00 1.0000e+00
        2 -1    0    0  501    0 +0.0000000000e+00 -0.0000000000e+00 -2.4384787832e+02 2.4384787834e+02 2.5500000000e-03 0.0000e+00 -1.0000e+00
      -13  1    1    2    0    0 +1.7633400538e+01 +4.7029311559e+01 -1.1507289214e+02 1.2555665904e+02 1.0566000000e-01 0.0000e+00 1.0000e+00
       13  1    1    2    0    0 +2.0468926851e+01 -3.5727048162e+00 +3.0408235628e+01 3.6829514580e+01 1.0566000000e-01 0.0000e+00 -1.0000e+00
      -13  1    1    2    0    0 -9.5281015673e+01 +2.7423621892e+01 +6.4308569449e+00 9.9357405715e+01 1.0566000000e-01 0.0000e+00 1.0000e+00
       13  1    1    2    0    0 +5.7178688283e+01 -7.0880228634e+01 -4.5787460468e+01 1.0193091732e+02 1.0566000000e-01 0.0000e+00 -1.0000e+00
<mgrwt>
<rscale>  0 0.34187405E+03</rscale>
<asrwt>0</asrwt>
<pdfrwt beam="1">  1        2 0.60961969E-01 0.34187405E+03</pdfrwt>
<pdfrwt beam="2">  1       -2 0.29956655E-01 0.34187405E+03</pdfrwt>
<totfact> 0.82973688E+02</totfact>
</mgrwt>
</event>
<event>
 6      1 +1.8175624e-03 2.57173800e+02 7.81860800e-03 1.10885300e-01
       -2 -1    0    0    0  501 -0.0000000000e+00 +0.0000000000e+00 +1.9133010111e+02 1.9133010113e+02 2.5500000000e-03 0.0000e+00 -1.0000e+00
        2 -1    0    0  501    0 +0.0000000000e+00 -0.0000000000e+00 -8.6419148690e+01 8.6419148728e+01 2.5500000000e-03 0.0000e+00 1.0000e+00
      -13  1    1    2    0    0 -8.9626352786e+00 -5.8188607789e+01 +5.2344780931e+01 7.8779630377e+01 1.0566000000e-01 0.0000e+00 1.0000e+00
       13  1    1    2    0    0 -3.2178420028e+01 +5.6362370870e+01 +7.2222177654e+01 9.7099030246e+01 1.0566000000e-01 0.0000e+00 1.0000e+00
      -13  1    1    2    0    0 +3.4704876961e+01 +2.7659555259e+01 +2.4213385975e+01 5.0554710032e+01 1.0566000000e-01 0.0000e+00 -1.0000e+00
       13  1    1    2    0    0 +6.4361783447e+00 -2.5833318341e+01 -4.3869392135e+01 5.1315879205e+01 1.0566000000e-01 0.0000e+00 -1.0000e+00
<mgrwt>
<rscale>  0 0.25717375E+03</rscale>
<asrwt>0</asrwt>
<pdfrwt beam="1">  1        2 0.21604787E-01 0.25717375E+03</pdfrwt>
<pdfrwt beam="2">  1       -2 0.47832525E-01 0.25717375E+03</pdfrwt>
<totfact> 0.10650233E+03</totfact>
</mgrwt>
</event>
<event>
 6      1 +1.8175624e-03 3.79825700e+02 7.81860800e-03 1.05099800e-01
       -2 -1    0    0    0  501 -0.0000000000e+00 +0.0000000000e+00 +1.1012269375e+02 1.1012269378e+02 2.5500000000e-03 0.0000e+00 1.0000e+00
        2 -1    0    0  501    0 +0.0000000000e+00 -0.0000000000e+00 -3.2751555673e+02 3.2751555674e+02 2.5500000000e-03 0.0000e+00 -1.0000e+00
      -13  1    1    2    0    0 -6.2362440130e+01 +6.2856622793e+01 -1.3324633577e+02 1.5998320577e+02 1.0566000000e-01 0.0000e+00 1.0000e+00
       13  1    1    2    0    0 +6.7632818843e+01 -1.1184047992e+02 -1.1381348851e+01 1.3119465462e+02 1.0566000000e-01 0.0000e+00 -1.0000e+00
      -13  1    1    2    0    0 -4.5237630326e+01 -1.7046900398e+01 -1.7025678171e+01 5.1253535409e+01 1.0566000000e-01 0.0000e+00 1.0000e+00
       13  1    1    2    0    0 +3.9967251613e+01 +6.6030757528e+01 -5.5739500197e+01 9.5206854729e+01 1.0566000000e-01 0.0000e+00 -1.0000e+00
<mgrwt>
<rscale>  0 0.37982573E+03</rscale>
<asrwt>0</asrwt>
<pdfrwt beam="1">  1        2 0.81878887E-01 0.37982573E+03</pdfrwt>
<pdfrwt beam="2">  1       -2 0.27530674E-01 0.37982573E+03</pdfrwt>
<totfact> 0.69462499E+02</totfact>
</mgrwt>
</event>
<event>
 6      1 +1.8175624e-03 8.91543000e+02 7.81860800e-03 9.43621500e-02
       -2 -1    0    0    0  501 -0.0000000000e+00 +0.0000000000e+00 +2.5601105100e+02 2.5601105101e+02 2.5500000000e-03 0.0000e+00 -1.0000e+00
        2 -1    0    0  501    0 +0.0000000000e+00 -0.0000000000e+00 -7.7618617339e+02 7.7618617339e+02 2.5500000000e-03 0.0000e+00 1.0000e+00
      -13  1    1    2    0    0 +6.9908388110e+01 +4.1224051771e+01 -2.7205535212e+01 8.5596480551e+01 1.0566000000e-01 0.0000e+00 1.0000e+00
       13  1    1    2    0    0 -2.8534010868e+02 -1.6893682977e+02 +2.6211734936e+01 3.3263447850e+02 1.0566000000e-01 0.0000e+00 -1.0000e+00
      -13  1    1    2    0    0 +1.5483689408e+02 +1.7899125325e+02 -4.5099163144e+02 5.0931895243e+02 1.0566000000e-01 0.0000e+00 1.0000e+00
       13  1    1    2    0    0 +6.0594826499e+01 -5.1278475252e+01 -6.8189690679e+01 1.0464731292e+02 1.0566000000e-01 0.0000e+00 -1.0000e+00
<mgrwt>
<rscale>  0 0.89154302E+03</rscale>
<asrwt>0</asrwt>
<pdfrwt beam="1">  1        2 0.19404654E+00 0.89154302E+03</pdfrwt>
<pdfrwt beam="2">  1       -2 0.64002764E-01 0.89154302E+03</pdfrwt>
<totfact> 0.39539876E+01</totfact>
</mgrwt>
</event>
<event>
 6      1 +1.8175624e-03 5.03918500e+02 7.81860800e-03 1.01276100e-01
       -2 -1    0    0    0  501 -0.0000000000e+00 +0.0000000000e+00 +7.9223534751e+01 7.9223534792e+01 2.5500000000e-03 0.0000e+00 -1.0000e+00
        2 -1    0    0  501    0 +0.0000000000e+00 -0.0000000000e+00 -8.0132069396e+02 8.0132069396e+02 2.5500000000e-03 0.0000e+00 1.0000e+00
      -13  1    1    2    0    0 -8.8294445009e+01 -9.9597317675e+01 -5.5917544451e+02 5.7479798504e+02 1.0566000000e-01 0.0000e+00 1.0000e+00
       13  1    1    2    0    0 +5.5633801886e+01 +5.9329123637e+01 +2.6643048775e+01 8.5585793423e+01 1.0566000000e-01 0.0000e+00 -1.0000e+00
      -13  1    1    2    0    0 +1.2292727498e+00 -3.1568045947e+01 -7.4467811318e+01 8.0892018908e+01 1.0566000000e-01 0.0000e+00 -1.0000e+00
       13  1    1    2    0    0 +3.1431370373e+01 +7.1836239985e+01 -1.1509695216e+02 1.3926843138e+02 1.0566000000e-01 0.0000e+00 1.0000e+00
<mgrwt>
<rscale>  0 0.50391848E+03</rscale>
<asrwt>0</asrwt>
<pdfrwt beam="1">  1        2 0.20033015E+00 0.50391848E+03</pdfrwt>
<pdfrwt beam="2">  1       -2 0.19805886E-01 0.50391848E+03</pdfrwt>
<totfact> 0.36736927E+02</totfact>
</mgrwt>
</event>
<event>
 6      1 +1.8175624e-03 2.48537000e+02 7.81860800e-03 1.11423300e-01
        1 -1    0    0  501    0 +0.0000000000e+00 +0.0000000000e+00 +1.8841214746e+02 1.8841214752e+02 5.0400000000e-03 0.0000e+00 -1.0000e+00
       -1 -1    0    0    0  501 -0.0000000000e+00 -0.0000000000e+00 -8.1962156770e+01 8.1962156925e+01 5.0400000000e-03 0.0000e+00 1.0000e+00
      -13  1    1    2    0    0 +8.3070217845e+00 +4.2793534344e+01 -1.8546654544e+01 4.7373861479e+01 1.0566000000e-01 0.0000e+00 1.0000e+00
       13  1    1    2    0    0 +8.3367687264e+01 -2.9221578472e+01 +6.2490478080e+01 1.0820879328e+02 1.0566000000e-01 0.0000e+00 -1.0000e+00
      -13  1    1    2    0    0 -3.8455423910e+01 +5.9977634298e+00 +3.2100991270e+01 5.0450744284e+01 1.0566000000e-01 0.0000e+00 1.0000e+00
       13  1    1    2    0    0 -5.3219285139e+01 -1.9569719302e+01 +3.0405175879e+01 6.4340905407e+01 1.0566000000e-01 0.0000e+00 -1.0000e+00
<mgrwt>
<rscale>  0 0.24853705E+03</rscale>
<asrwt>0</asrwt>
<pdfrwt beam="1">  1        1 0.47103037E-01 0.24853705E+03</pdfrwt>
<pdfrwt beam="2">  1       -1 0.20490539E-01 0.24853705E+03</pdfrwt>
<totfact> 0.16494036E+03</totfact>
</mgrwt>
</event>
<event>
 6      1 +1.8175624e-03 5.08504200e+02 7.81860800e-03 1.01158300e-01
       -2 -1    0    0    0  501 -0.0000000000e+00 +0.0000000000e+00 +7.3586077285e+01 7.3586077329e+01 2.5500000000e-03 0.0000e+00 -1.0000e+00
        2 -1    0    0  501    0 +0.0000000000e+00 -0.0000000000e+00 -8.7848331482e+02 8.7848331482e+02 2.5500000000e-03 0.0000e+00 1.0000e+00
      -13  1    1    2    0    0 +6.8678092197e+01 -1.1880014520e+01 -3.2649500474e+02 3.3385148551e+02 1.0566000000e-01 0.0000e+00 -1.0000e+00
       13  1    1    2    0    0 -1.0223364530e+01 +1.0778494796e+01 -5.3526733739e+00 1.5790991377e+01 1.0566000000e-01 0.0000e+00 1.0000e+00
      -13  1    1    2    0    0 -1.0105732046e+02 -1.5899203697e+02 -1.5556359450e+02 2.4431760668e+02 1.0566000000e-01 0.0000e+00 -1.0000e+00
       13  1    1    2    0    0 +4.2602592797e+01 +1.6009355669e+02 -3.1748596492e+02 3.5810930858e+02 1.0566000000e-01 0.0000e+00 1.0000e+00
<mgrwt>
<rscale>  0 0.50850424E+03</rscale>
<asrwt>0</asrwt>
<pdfrwt beam="1">  1        2 0.21962080E+00 0.50850424E+03</pdfrwt>
<pdfrwt beam="2">  1       -2 0.18396522E-01 0.50850424E+03</pdfrwt>
<totfact> 0.35476826E+02</totfact>
</mgrwt>
</event>
<event>
 6      1 +1.8175624e-03 5.35274600e+02 7.81860800e-03 1.00496100e-01
        2 -1    0    0  501    0 +0.0000000000e+00 +0.0000000000e+00 +2.0550600108e+02 2.0550600109e+02 2.5500000000e-03 0.0000e+00 -1.0000e+00
       -2 -1    0    0    0  501 -0.0000000000e+00 -0.0000000000e+00 -3.4855298027e+02 3.4855298028e+02 2.5500000000e-03 0.0000e+00 1.0000e+00
      -13  1    1    2    0    0 +4.6680274707e+01 +1.2433345145e+01 -7.1592735815e-01 4.8313143494e+01 1.0566000000e-01 0.0000e+00 1.0000e+00
       13  1    1    2    0    0 +2.0141270500e+02 -4.1336936698e+01 -7.1793053595e+00 2.0573617490e+02 1.0566000000e-01 0.0000e+00 -1.0000e+00
      -13  1    1    2    0    0 -1.5322065149e+01 -1.2638991931e+01 -4.0900057701e+01 4.5467963243e+01 1.0566000000e-01 0.0000e+00 -1.0000e+00
       13  1    1    2    0    0 -2.3277091456e+02 +4.1542583484e+01 -9.4251688775e+01 2.5454169974e+02 1.0566000000e-01 0.0000e+00 1.0000e+00
<mgrwt>
<rscale>  0 0.53527462E+03</rscale>
<asrwt>0</asrwt>
<pdfrwt beam="1">  1        2 0.51376501E-01 0.53527462E+03</pdfrwt>
<pdfrwt beam="2">  1       -2 0.87138244E-01 0.53527462E+03</pdfrwt>
<totfact> 0.11319107E+02</totfact>
</mgrwt>
</event>
<event>
 6      1 +1.8175624e-03 1.72148700e+02 7.81860800e-03 1.17562500e-01
        2 -1    0    0  501    0 +0.0000000000e+00 +0.0000000000e+00 +3.1247800800e+02 3.1247800801e+02 2.5500000000e-03 0.0000e+00 -1.0000e+00
       -2 -1    0    0    0  501 -0.0000000000e+00 -0.0000000000e+00 -2.3709810069e+01 2.3709810206e+01 2.5500000000e-03 0.0000e+00 1.0000e+00
      -13  1    1    2    0    0 +5.0239120186e+01 +1.5403688603e+00 +9.2550366751e+01 1.0531820110e+02 1.0566000000e-01 0.0000e+00 -1.0000e+00
       13  1    1    2    0    0 -2.3643273638e+01 +1.7786092786e+01 +2.5674812539e+01 3.9173417618e+01 1.0566000000e-01 0.0000e+00 1.0000e+00
      -13  1    1    2    0    0 -7.7984360591e+00 +2.4288932333e+01 +1.6219958361e+01 3.0230217533e+01 1.0566000000e-01 0.0000e+00 1.0000e+00
       13  1    1    2    0    0 -1.8797410489e+01 -4.3615393980e+01 +1.5432306028e+02 1.6146598197e+02 1.0566000000e-01 0.0000e+00 -1.0000e+00
<mgrwt>
<rscale>  0 0.17214871E+03</rscale>
<asrwt>0</asrwt>
<pdfrwt beam="1">  1        2 0.78119501E-01 0.17214871E+03</pdfrwt>
<pdfrwt beam="2">  1       -2 0.59274526E-02 0.17214871E+03</pdfrwt>
<totfact> 0.89381263E+03</totfact>
</mgrwt>
</event>
<event>
 6      1 +1.8175624e-03 2.74773300e+02 7.81860800e-03 1.09857800e-01
        2 -1    0    0  501    0 +0.0000000000e+00 +0.0000000000e+00 +1.5187006617e+02 1.5187006620e+02 2.5500000000e-03 0.0000e+00 1.0000e+00
       -2 -1    0    0    0  501 -0.0000000000e+00 -0.0000000000e+00 -1.2428450695e+02 1.2428450698e+02 2.5500000000e-03 0.0000e+00 -1.0000e+00
      -13  1    1    2    0    0 -2.8224704003e+01 -1.2068408799e-01 +4.2613208231e+01 5.1113062523e+01 1.0566000000e-01 0.0000e+00 -1.0000e+00
       13  1    1    2    0    0 +3.3210576143e+01 -6.0609036952e+01 +5.8564387562e+01 9.0588058720e+01 1.0566000000e-01 0.0000e+00 1.0000e+00
      -13  1    1    2    0    0 -4.6105535962e+01 +5.3275860163e+01 -5.0724639411e+01 8.6816115611e+01 1.0566000000e-01 0.0000e+00 -1.0000e+00
       13  1    1    2    0    0 +4.1119663822e+01 +7.4538608779e+00 -2.2867397163e+01 4.7637336322e+01 1.0566000000e-01 0.0000e+00 1.0000e+00
<mgrwt>
<rscale>  0 0.27477333E+03</rscale>
<asrwt>0</asrwt>
<pdfrwt beam="1">  1        2 0.37967516E-01 0.27477333E+03</pdfrwt>
<pdfrwt beam="2">  1       -2 0.31071127E-01 0.27477333E+03</pdfrwt>
<totfact> 0.12969625E+03</totfact>
</mgrwt>
</event>
<event>
 6      1 +1.8175624e-03 2.86729200e+02 7.81860800e-03 1.09206900e-01
        1 -1    0    0  501    0 +0.0000000000e+00 +0.0000000000e+00 +2.4789600167e+02 2.4789600172e+02 5.0400000000e-03 0.0000e+00 -1.0000e+00
       -1 -1    0    0    0  501 -0.0000000000e+00 -0.0000000000e+00 -8.2911398599e+01 8.2911398752e+01 5.0400000000e-03 0.0000e+00 1.0000e+00
      -13  1    1    2    0    0 +1.2141428904e+01 +3.2300066413e+01 -1.4147042668e+01 3.7294216259e+01 1.0566000000e-01 0.0000e+00 1.0000e+00
       13  1    1    2    0    0 +2.2150326272e+01 -2.3701759814e+01 +2.2317892185e+01 3.9376513912e+01 1.0566000000e-01 0.0000e+00 1.0000e+00
      -13  1    1    2    0    0 -5.1821482913e+01 +4.3626231155e+01 -1.8623656943e+01 7.0253582814e+01 1.0566000000e-01 0.0000e+00 -1.0000e+00
       13  1    1    2    0    0 +1.7529727737e+01 -5.2224537755e+01 +1.7543741050e+02 1.8388308749e+02 1.0566000000e-01 0.0000e+00 -1.0000e+00
<mgrwt>
<rscale>  0 0.28672917E+03</rscale>
<asrwt>0</asrwt>
<pdfrwt beam="1">  1        1 0.61973999E-01 0.28672917E+03</pdfrwt>
<pdfrwt beam="2">  1       -1 0.20727850E-01 0.28672917E+03</pdfrwt>
<totfact> 0.11429828E+03</totfact>
</mgrwt>
</event>
<event>
 6      1 +1.8175624e-03 4.53073300e+02 7.81860800e-03 1.02681000e-01
        2 -1    0    0  501    0 +0.0000000000e+00 +0.0000000000e+00 +4.0300117187e+01 4.0300117267e+01 2.5500000000e-03 0.0000e+00 1.0000e+00
       -2 -1    0    0    0  501 -0.0000000000e+00 -0.0000000000e+00 -1.2734168600e+03 1.2734168600e+03 2.5500000000e-03 0.0000e+00 -1.0000e+00
      -13  1    1    2    0    0 -1.4479626410e+02 +2.8932077835e+01 -2.4874001156e+02 2.8926566983e+02 1.0566000000e-01 0.0000e+00 1.0000e+00
       13  1    1    2    0    0 +2.6136533858e+01 +3.0482561450e+01 -2.0606919073e+02 2.0994482010e+02 1.0566000000e-01 0.0000e+00 -1.0000e+00
      -13  1    1    2    0    0 -5.2948725901e+01 +1.1884935679e+01 -1.8077724579e+02 1.8874650469e+02 1.0566000000e-01 0.0000e+00 1.0000e+00
       13  1    1    2    0    0 +1.7160845614e+02 -7.1299574965e+01 -5.9753029471e+02 6.2575998264e+02 1.0566000000e-01 0.0000e+00 -1.0000e+00
<mgrwt>
<rscale>  0 0.45307328E+03</rscale>
<asrwt>0</asrwt>
<pdfrwt beam="1">  1        2 0.10075034E-01 0.45307328E+03</pdfrwt>
<pdfrwt beam="2">  1       -2 0.31835408E+00 0.45307328E+03</pdfrwt>
<totfact> 0.17480218E+01</totfact>
</mgrwt>
</event>
<event>
 6      1 +1.8175624e-03 3.33525200e+02 7.81860800e-03 1.06958800e-01
        2 -1    0    0  501    0 +0.0000000000e+00 +0.0000000000e+00 +1.1660753472e+02 1.1660753475e+02 2.5500000000e-03 0.0000e+00 -1.0000e+00
       -2 -1    0    0    0  501 -0.0000000000e+00 -0.0000000000e+00 -2.3849025710e+02 2.3849025711e+02 2.5500000000e-03 0.0000e+00 1.0000e+00
      -13  1    1    2    0    0 +6.5984823617e+00 +1.1429990429e+01 +2.4212859352e+00 1.3418585630e+01 1.0566000000e-01 0.0000e+00 1.0000e+00
       13  1    1    2    0    0 +7.6565345256e+01 -2.5999944365e+01 +7.0026652969e+01 1.0696724962e+02 1.0566000000e-01 0.0000e+00 -1.0000e+00
      -13  1    1    2    0    0 -9.6584731182e+01 +2.0880960321e+01 -1.0510698607e+02 1.4426404433e+02 1.0566000000e-01 0.0000e+00 -1.0000e+00
       13  1    1    2    0    0 +1.3420903564e+01 -6.3110063848e+00 -8.9223675213e+01 9.0447912285e+01 1.0566000000e-01 0.0000e+00 1.0000e+00
<mgrwt>
<rscale>  0 0.33352518E+03</rscale>
<asrwt>0</asrwt>
<pdfrwt beam="1">  1        2 0.29151884E-01 0.33352518E+03</pdfrwt>
<pdfrwt beam="2">  1       -2 0.59622564E-01 0.33352518E+03</pdfrwt>
<totfact> 0.48700177E+02</totfact>
</mgrwt>
</event>
<event>
 6      1 +1.8175624e-03 3.45157400e+02 7.81860800e-03 1.06462000e-01
       -1 -1    0    0    0  501 -0.0000000000e+00 +0.0000000000e+00 +8.8786211182e+01 8.8786211325e+01 5.0400000000e-03 0.0000e+00 -1.0000e+00
        1 -1    0    0  501    0 +0.0000000000e+00 -0.0000000000e+00 -3.3545072780e+02 3.3545072784e+02 5.0400000000e-03 0.0000e+00 1.0000e+00
      -13  1    1    2    0    0 +6.8695468907e+01 -1.5297284407e+00 +1.5883805099e+01 7.0524562713e+01 1.0566000000e-01 0.0000e+00 1.0000e+00
       13  1    1    2    0    0 -1.3158436706e+02 -1.0883840507e+01 -1.0208134576e+02 1.6689372653e+02 1.0566000000e-01 0.0000e+00 1.0000e+00
      -13  1    1    2    0    0 -8.5172172412e+00 +1.9285459448e+01 -5.8194701621e+01 6.1895931986e+01 1.0566000000e-01 0.0000e+00 -1.0000e+00
       13  1    1    2    0    0 +7.1406115392e+01 -6.8718905003e+00 -1.0227227434e+02 1.2492271793e+02 1.0566000000e-01 0.0000e+00 -1.0000e+00
<mgrwt>
<rscale>  0 0.34515735E+03</rscale>
<asrwt>0</asrwt>
<pdfrwt beam="1">  1        1 0.83862679E-01 0.34515735E+03</pdfrwt>
<pdfrwt beam="2">  1       -1 0.22196554E-01 0.34515735E+03</pdfrwt>
<totfact> 0.68327932E+02</totfact>
</mgrwt>
</event>
<event>
 6      1 +1.8175624e-03 3.35812600e+02 7.81860800e-03 1.06859400e-01
        2 -1    0    0  501    0 +0.0000000000e+00 +0.0000000000e+00 +2.4149907840e+02 2.4149907841e+02 2.5500000000e-03 0.0000e+00 -1.0000e+00
       -2 -1    0    0    0  501 -0.0000000000e+00 -0.0000000000e+00 -1.1673969310e+02 1.1673969313e+02 2.5500000000e-03 0.0000e+00 1.0000e+00
      -13  1    1    2    0    0 +4.6301367409e+01 -5.0422294338e+01 -6.5952151248e+01 9.5057465822e+01 1.0566000000e-01 0.0000e+00 1.0000e+00
       13  1    1    2    0    0 +2.5883660065e+01 +1.8087780575e+01 +2.6708831703e+00 3.1690321005e+01 1.0566000000e-01 0.0000e+00 -1.0000e+00
      -13  1    1    2    0    0 +2.3757997323e+01 -8.3786510314e+00 +1.4525035420e+01 2.9079753230e+01 1.0566000000e-01 0.0000e+00 1.0000e+00
       13  1    1    2    0    0 -9.5943024796e+01 +4.0713164795e+01 +1.7351561795e+02 2.0241123148e+02 1.0566000000e-01 0.0000e+00 -1.0000e+00
<mgrwt>
<rscale>  0 0.33581262E+03</rscale>
<asrwt>0</asrwt>
<pdfrwt beam="1">  1        2 0.60374769E-01 0.33581262E+03</pdfrwt>
<pdfrwt beam="2">  1       -2 0.29184923E-01 0.33581262E+03</pdfrwt>
<totfact> 0.87952718E+02</totfact>
</mgrwt>
</event>
<event>
 6      1 +1.8175624e-03 3.46505200e+02 7.81860800e-03 1.06405900e-01
       -2 -1    0    0    0  501 -0.0000000000e+00 +0.0000000000e+00 +7.0936515523e+01 7.0936515569e+01 2.5500000000e-03 0.0000e+00 1.0000e+00
        2 -1    0    0  501    0 +0.0000000000e+00 -0.0000000000e+00 -4.2314554016e+02 4.2314554017e+02 2.5500000000e-03 0.0000e+00 -1.0000e+00
      -13  1    1    2    0    0 -9.5908562737e+01 -4.7502268862e+01 -1.0370466488e+02 1.4902881143e+02 1.0566000000e-01 0.0000e+00 1.0000e+00
       13  1    1    2    0    0 -1.5757523257e+01 +7.6127218059e+01 -1.3451065278e+02 1.5536016138e+02 1.0566000000e-01 0.0000e+00 -1.0000e+00
      -13  1    1    2    0    0 +6.7750299829e+01 -3.0811542717e+01 -1.2397847644e+02 1.4460334739e+02 1.0566000000e-01 0.0000e+00 1.0000e+00
       13  1    1    2    0    0 +4.3915786165e+01 +2.1865935198e+00 +9.9847694661e+00 4.5089735540e+01 1.0566000000e-01 0.0000e+00 -1.0000e+00
<mgrwt>
<rscale>  0 0.34650524E+03</rscale>
<asrwt>0</asrwt>
<pdfrwt beam="1">  1        2 0.10578638E+00 0.34650524E+03</pdfrwt>
<pdfrwt beam="2">  1       -2 0.17734130E-01 0.34650524E+03</pdfrwt>
<totfact> 0.11086693E+03</totfact>
</mgrwt>
</event>
<event>
 6      1 +1.8175624e-03 4.47130300e+02 7.81860800e-03 1.02858100e-01
       -2 -1    0    0    0  501 -0.0000000000e+00 +0.0000000000e+00 +4.4009547419e+02 4.4009547420e+02 2.5500000000e-03 0.0000e+00 -1.0000e+00
        2 -1    0    0  501    0 +0.0000000000e+00 -0.0000000000e+00 -1.1356938249e+02 1.1356938252e+02 2.5500000000e-03 0.0000e+00 1.0000e+00
      -13  1    1    2    0    0 -5.9955148635e+01 +1.1163830291e+02 +3.4072186507e+02 3.6352321938e+02 1.0566000000e-01 0.0000e+00 -1.0000e+00
       13  1    1    2    0    0 +4.1337344442e+01 +5.4450744209e-02 -7.0119042336e+00 4.1927997513e+01 1.0566000000e-01 0.0000e+00 1.0000e+00
      -13  1    1    2    0    0 -1.1825106194e+01 -6.8858151690e+01 +3.7446158416e+01 7.9268557037e+01 1.0566000000e-01 0.0000e+00 -1.0000e+00
       13  1    1    2    0    0 +3.0442910387e+01 -4.2834601969e+01 -4.4630027552e+01 6.8945082798e+01 1.0566000000e-01 0.0000e+00 1.0000e+00
<mgrwt>
<rscale>  0 0.44713028E+03</rscale>
<asrwt>0</asrwt>
<pdfrwt beam="1">  1        2 0.28392346E-01 0.44713028E+03</pdfrwt>
<pdfrwt beam="2">  1       -2 0.11002387E+00 0.44713028E+03</pdfrwt>
<totfact> 0.12708868E+02</totfact>
</mgrwt>
</event>
<event>
 6      1 +1.8175624e-03 2.79942400e+02 7.81860800e-03 1.09572000e-01
       -2 -1    0    0    0  501 -0.0000000000e+00 +0.0000000000e+00 +2.1300118598e+02 2.1300118600e+02 2.5500000000e-03 0.0000e+00 -1.0000e+00
        2 -1    0    0  501    0 +0.0000000000e+00 -0.0000000000e+00 -9.1980391609e+01 9.1980391644e+01 2.5500000000e-03 0.0000e+00 1.0000e+00
      -13  1    1    2    0    0 +3.3075499580e+01 +6.0463767820e+01 +6.8679931318e+01 9.7297482092e+01 1.0566000000e-01 0.0000e+00 -1.0000e+00
       13  1    1    2    0    0 +1.3725870947e+01 -6.4761942466e+01 -3.0319107110e+01 7.2813241551e+01 1.0566000000e-01 0.0000e+00 1.0000e+00
      -13  1    1    2    0    0 +4.6211751074e+00 -3.7722361153e+01 +1.7521224784e+01 4.1848969788e+01 1.0566000000e-01 0.0000e+00 -1.0000e+00
       13  1    1    2    0    0 -5.1422545635e+01 +4.2020535799e+01 +6.5138745382e+01 9.3021884212e+01 1.0566000000e-01 0.0000e+00 1.0000e+00
<mgrwt>
<rscale>  0 0.27994237E+03</rscale>
<asrwt>0</asrwt>
<pdfrwt beam="1">  1        2 0.22995098E-01 0.27994237E+03</pdfrwt>
<pdfrwt beam="2">  1       -2 0.53250296E-01 0.27994237E+03</pdfrwt>
<totfact> 0.80114849E+02</totfact>
</mgrwt>
</event>
<event>
 6      1 +1.8175624e-03 2.42684100e+02 7.81860800e-03 1.11801800e-01
        2 -1    0    0  501    0 +0.0000000000e+00 +0.0000000000e+00 +4.7150220931e+01 4.7150221000e+01 2.5500000000e-03 0.0000e+00 1.0000e+00
       -2 -1    0    0    0  501 -0.0000000000e+00 -0.0000000000e+00 -3.1227621535e+02 3.1227621536e+02 2.5500000000e-03 0.0000e+00 -1.0000e+00
      -13  1    1    2    0    0 -2.2556600528e+01 +8.9966013945e+01 -1.5969009169e+02 1.8467165576e+02 1.0566000000e-01 0.0000e+00 1.0000e+00
       13  1    1    2    0    0 +2.9127560600e+01 -1.0068397959e+01 -6.9106986870e+00 3.1584115380e+01 1.0566000000e-01 0.0000e+00 1.0000e+00
      -13  1    1    2    0    0 +2.6705922887e+01 -5.7985094342e+01 -5.6358954302e+01 8.5157620781e+01 1.0566000000e-01 0.0000e+00 -1.0000e+00
       13  1    1    2    0    0 -3.3276882959e+01 -2.1912521644e+01 -4.2166249747e+01 5.8013044447e+01 1.0566000000e-01 0.0000e+00 -1.0000e+00
<mgrwt>
<rscale>  0 0.24268410E+03</rscale>
<asrwt>0</asrwt>
<pdfrwt beam="1">  1        2 0.11787556E-01 0.24268410E+03</pdfrwt>
<pdfrwt beam="2">  1       -2 0.78069048E-01 0.24268410E+03</pdfrwt>
<totfact> 0.78318591E+02</totfact>
</mgrwt>
</event>
<event>
 6      1 +1.8175624e-03 4.26071900e+02 7.81860800e-03 1.03510800e-01
        2 -1    0    0  501    0 +0.0000000000e+00 +0.0000000000e+00 +1.3869056308e+03 1.3869056308e+03 2.5500000000e-03 0.0000e+00 1.0000e+00
       -2 -1    0    0    0  501 -0.0000000000e+00 -0.0000000000e+00 -3.2723431554e+01 3.2723431654e+01 2.5500000000e-03 0.0000e+00 -1.0000e+00
      -13  1    1    2    0    0 +5.3703724057e+01 -1.2937812269e+02 +2.2438446326e+02 2.6452067429e+02 1.0566000000e-01 0.0000e+00 -1.0000e+00
       13  1    1    2    0    0 -4.8787502910e+01 +5.0430077964e+01 +3.2764129865e+02 3.3507050743e+02 1.0566000000e-01 0.0000e+00 -1.0000e+00
      -13  1    1    2    0    0 +3.5069430523e+01 +1.1260778791e+02 +5.4232318163e+02 5.5499984086e+02 1.0566000000e-01 0.0000e+00 1.0000e+00
       13  1    1    2    0    0 -3.9985651670e+01 -3.3659743177e+01 +2.5983325573e+02 2.6503803990e+02 1.0566000000e-01 0.0000e+00 1.0000e+00
<mgrwt>
<rscale>  0 0.42607188E+03</rscale>
<asrwt>0</asrwt>
<pdfrwt beam="1">  1        2 0.34672641E+00 0.42607188E+03</pdfrwt>
<pdfrwt beam="2">  1       -2 0.81808579E-02 0.42607188E+03</pdfrwt>
<totfact> 0.48617222E+02</totfact>
</mgrwt>
</event>
<event>
 6      1 +1.8175624e-03 4.56682800e+02 7.81860800e-03 1.02574800e-01
       -1 -1    0    0    0  501 -0.0000000000e+00 +0.0000000000e+00 +1.1206126529e+02 1.1206126541e+02 5.0400000000e-03 0.0000e+00 1.0000e+00
        1 -1    0    0  501    0 +0.0000000000e+00 -0.0000000000e+00 -4.6527946287e+02 4.6527946290e+02 5.0400000000e-03 0.0000e+00 -1.0000e+00
      -13  1    1    2    0    0 -1.7549922002e+01 -6.2292546362e+01 +1.1544413744e+01 6.5739225332e+01 1.0566000000e-01 0.0000e+00 1.0000e+00
       13  1    1    2    0    0 +1.3546341593e+02 -6.9303305755e+01 -1.2014969902e+02 1.9387946405e+02 1.0566000000e-01 0.0000e+00 -1.0000e+00
      -13  1    1    2    0    0 -9.8794430079e+01 +9.4578418447e+01 -2.3942758521e+02 2.7573718714e+02 1.0566000000e-01 0.0000e+00 -1.0000e+00
       13  1    1    2    0    0 -1.9119063844e+01 +3.7017433670e+01 -5.1853270988e+00 4.1984851779e+01 1.0566000000e-01 0.0000e+00 1.0000e+00
<mgrwt>
<rscale>  0 0.45668285E+03</rscale>
<asrwt>0</asrwt>
<pdfrwt beam="1">  1        1 0.11631986E+00 0.45668285E+03</pdfrwt>
<pdfrwt beam="2">  1       -1 0.28015318E-01 0.45668285E+03</pdfrwt>
<totfact> 0.28602719E+02</totfact>
</mgrwt>
</event>
<event>
 6      1 +1.8175624e-03 4.10316200e+02 7.81860800e-03 1.04026500e-01
        2 -1    0    0  501    0 +0.0000000000e+00 +0.0000000000e+00 +6.1802365132e+02 6.1802365133e+02 2.5500000000e-03 0.0000e+00 1.0000e+00
       -2 -1    0    0    0  501 -0.0000000000e+00 -0.0000000000e+00 -6.8103939613e+01 6.8103939661e+01 2.5500000000e-03 0.0000e+00 -1.0000e+00
      -13  1    1    2    0    0 +1.3367030830e+02 -8.7549302697e+01 +1.5552336990e+02 2.2298018180e+02 1.0566000000e-01 0.0000e+00 -1.0000e+00
       13  1    1    2    0    0 -1.3356641855e+02 +8.7291089439e+01 +1.8530453156e+02 2.4453527974e+02 1.0566000000e-01 0.0000e+00 -1.0000e+00
      -13  1    1    2    0    0 +3.3007836439e+00 -3.0146334918e+01 +1.3664794613e+02 1.3997274387e+02 1.0566000000e-01 0.0000e+00 1.0000e+00
       13  1    1    2    0    0 -3.4046733970e+00 +3.0404548176e+01 +7.2443864117e+01 7.8639385571e+01 1.0566000000e-01 0.0000e+00 1.0000e+00
<mgrwt>
<rscale>  0 0.41031620E+03</rscale>
<asrwt>0</asrwt>
<pdfrwt beam="1">  1        2 0.15450591E+00 0.41031620E+03</pdfrwt>
<pdfrwt beam="2">  1       -2 0.17025985E-01 0.41031620E+03</pdfrwt>
<totfact> 0.71918369E+02</totfact>
</mgrwt>
</event>
<event>
 6      1 +1.8175624e-03 4.17893300e+02 7.81860800e-03 1.03775400e-01
        2 -1    0    0  501    0 +0.0000000000e+00 +0.0000000000e+00 +5.2393803778e+02 5.2393803779e+02 2.5500000000e-03 0.0000e+00 -1.0000e+00
       -2 -1    0    0    0  501 -0.0000000000e+00 -0.0000000000e+00 -8.3328007449e+01 8.3328007488e+01 2.5500000000e-03 0.0000e+00 1.0000e+00
      -13  1    1    2    0    0 -5.9649887512e+01 +5.0178103867e+01 +2.5922430747e+01 8.2145814061e+01 1.0566000000e-01 0.0000e+00 1.0000e+00
       13  1    1    2    0    0 -2.3292676930e-01 -1.5855084689e+02 +2.4016589720e+02 2.8778133130e+02 1.0566000000e-01 0.0000e+00 -1.0000e+00
      -13  1    1    2    0    0 +9.8587206131e+00 -1.6931486539e+01 +4.1734440687e+00 2.0032433900e+01 1.0566000000e-01 0.0000e+00 -1.0000e+00
       13  1    1    2    0    0 +5.0024093668e+01 +1.2530422956e+02 +1.7034825832e+02 2.1730646601e+02 1.0566000000e-01 0.0000e+00 1.0000e+00
<mgrwt>
<rscale>  0 0.41789335E+03</rscale>
<asrwt>0</asrwt>
<pdfrwt beam="1">  1        2 0.13098451E+00 0.41789335E+03</pdfrwt>
<pdfrwt beam="2">  1       -2 0.20832002E-01 0.41789335E+03</pdfrwt>
<totfact> 0.63890978E+02</totfact>
</mgrwt>
</event>
<event>
 6      1 +1.8175624e-03 3.88923700e+02 7.81860800e-03 1.04768400e-01
        1 -1    0    0  501    0 +0.0000000000e+00 +0.0000000000e+00 +8.1160969559e+02 8.1160969560e+02 5.0400000000e-03 0.0000e+00 -1.0000e+00
       -1 -1    0    0    0  501 -0.0000000000e+00 -0.0000000000e+00 -4.6593099429e+01 4.6593099702e+01 5.0400000000e-03 0.0000e+00 1.0000e+00
      -13  1    1    2    0    0 -9.6748851093e+01 +7.9562290540e+01 +2.3114487303e+02 2.6290390213e+02 1.0566000000e-01 0.0000e+00 1.0000e+00
       13  1    1    2    0    0 +1.2127553738e+02 -9.4435890830e+01 +3.6462371200e+02 3.9569730346e+02 1.0566000000e-01 0.0000e+00 -1.0000e+00
      -13  1    1    2    0    0 -4.3747097610e+01 -2.9975127808e+01 +1.1499631143e+02 1.2663522276e+02 1.0566000000e-01 0.0000e+00 1.0000e+00
       13  1    1    2    0    0 +1.9220411320e+01 +4.4848728099e+01 +5.4251699699e+01 7.2966366962e+01 1.0566000000e-01 0.0000e+00 -1.0000e+00
<mgrwt>
<rscale>  0 0.38892370E+03</rscale>
<asrwt>0</asrwt>
<pdfrwt beam="1">  1        1 0.20290241E+00 0.38892370E+03</pdfrwt>
<pdfrwt beam="2">  1       -1 0.11648276E-01 0.38892370E+03</pdfrwt>
<totfact> 0.45082426E+02</totfact>
</mgrwt>
</event>
<event>
 6      1 +1.8175624e-03 3.99001000e+02 7.81860800e-03 1.04412600e-01
        2 -1    0    0  501    0 +0.0000000000e+00 +0.0000000000e+00 +4.1538975698e+02 4.1538975699e+02 2.5500000000e-03 0.0000e+00 1.0000e+00
       -2 -1    0    0    0  501 -0.0000000000e+00 -0.0000000000e+00 -9.5814724372e+01 9.5814724406e+01 2.5500000000e-03 0.0000e+00 -1.0000e+00
      -13  1    1    2    0    0 -2.6816663911e+01 +9.4348867885e+01 +7.4100797945e+01 1.2292998721e+02 1.0566000000e-01 0.0000e+00 1.0000e+00
       13  1    1    2    0    0 +6.6281732970e+01 +6.4530481667e+01 +6.7485445567e+01 1.1450654006e+02 1.0566000000e-01 0.0000e+00 1.0000e+00
      -13  1    1    2    0    0 -8.0784671187e+01 -1.4196591264e+02 +1.4143269167e+02 2.1606411291e+02 1.0566000000e-01 0.0000e+00 -1.0000e+00
       13  1    1    2    0    0 +4.1319602128e+01 -1.6913436916e+01 +3.6556097432e+01 5.7703841222e+01 1.0566000000e-01 0.0000e+00 -1.0000e+00
<mgrwt>
<rscale>  0 0.39900103E+03</rscale>
<asrwt>0</asrwt>
<pdfrwt beam="1">  1        2 0.10384744E+00 0.39900103E+03</pdfrwt>
<pdfrwt beam="2">  1       -2 0.23953682E-01 0.39900103E+03</pdfrwt>
<totfact> 0.67239648E+02</totfact>
</mgrwt>
</event>
<event>
 6      1 +1.8175624e-03 5.02011100e+02 7.81860800e-03 1.01325500e-01
       -2 -1    0    0    0  501 -0.0000000000e+00 +0.0000000000e+00 +2.0896416354e+02 2.0896416356e+02 2.5500000000e-03 0.0000e+00 1.0000e+00
        2 -1    0    0  501    0 +0.0000000000e+00 -0.0000000000e+00 -3.0150526653e+02 3.0150526654e+02 2.5500000000e-03 0.0000e+00 -1.0000e+00
      -13  1    1    2    0    0 +1.2304867782e+01 -4.3988197983e+01 -1.8615763507e+01 4.9324731605e+01 1.0566000000e-01 0.0000e+00 1.0000e+00
       13  1    1    2    0    0 -9.8927107611e+00 +5.9843961611e+01 -3.1661075188e+01 6.8422220905e+01 1.0566000000e-01 0.0000e+00 -1.0000e+00
      -13  1    1    2    0    0 +1.8518771796e+02 -4.2734209522e+01 +2.4853806099e+01 1.9167270643e+02 1.0566000000e-01 0.0000e+00 1.0000e+00
       13  1    1    2    0    0 -1.8759987498e+02 +2.6878445895e+01 -6.7118070386e+01 2.0104977116e+02 1.0566000000e-01 0.0000e+00 -1.0000e+00
<mgrwt>
<rscale>  0 0.50201114E+03</rscale>
<asrwt>0</asrwt>
<pdfrwt beam="1">  1        2 0.75376316E-01 0.50201114E+03</pdfrwt>
<pdfrwt beam="2">  1       -2 0.52241041E-01 0.50201114E+03</pdfrwt>
<totfact> 0.22249818E+02</totfact>
</mgrwt>
</event>
<event>
 6      1 +1.8175624e-03 3.00918300e+02 7.81860800e-03 1.08478200e-01
        2 -1    0    0  501    0 +0.0000000000e+00 +0.0000000000e+00 +6.1975149116e+02 6.1975149116e+02 2.5500000000e-03 0.0000e+00 -1.0000e+00
       -2 -1    0    0    0  501 -0.0000000000e+00 -0.0000000000e+00 -3.6527480842e+01 3.6527480931e+01 2.5500000000e-03 0.0000e+00 1.0000e+00
      -13  1    1    2    0    0 -8.8091667098e+01 -3.2428798339e+01 +8.8753673288e+01 1.2918589110e+02 1.0566000000e-01 0.0000e+00 1.0000e+00
       13  1    1    2    0    0 +6.1270412878e+01 +3.6097742864e+01 +1.1544784398e+02 1.3559250118e+02 1.0566000000e-01 0.0000e+00 -1.0000e+00
      -13  1    1    2    0    0 +5.9813642811e+01 +1.2296754497e+01 +2.5223740281e+02 2.5952379579e+02 1.0566000000e-01 0.0000e+00 1.0000e+00
       13  1    1    2    0    0 -3.2992388590e+01 -1.5965699021e+01 +1.2678509024e+02 1.3197678402e+02 1.0566000000e-01 0.0000e+00 -1.0000e+00
<mgrwt>
<rscale>  0 0.30091833E+03</rscale>
<asrwt>0</asrwt>
<pdfrwt beam="1">  1        2 0.15493787E+00 0.30091833E+03</pdfrwt>
<pdfrwt beam="2">  1       -2 0.91318706E-02 0.30091833E+03</pdfrwt>
<totfact> 0.19932054E+03</totfact>
</mgrwt>
</event>
<event>
 6      1 +1.8175624e-03 4.99890900e+02 7.81860800e-03 1.01380700e-01
        2 -1    0    0  501    0 +0.0000000000e+00 +0.0000000000e+00 +1.9126106954e+02 1.9126106956e+02 2.5500000000e-03 0.0000e+00 -1.0000e+00
       -2 -1    0    0    0  501 -0.0000000000e+00 -0.0000000000e+00 -3.2663586425e+02 3.2663586426e+02 2.5500000000e-03 0.0000e+00 1.0000e+00
      -13  1    1    2    0    0 -7.4784514389e+01 -1.8908353252e+02 -1.4251489808e+02 2.4830588636e+02 1.0566000000e-01 0.0000e+00 1.0000e+00
       13  1    1    2    0    0 +3.3554405444e+01 +3.3310631495e+01 +1.2611325256e+01 4.8934169902e+01 1.0566000000e-01 0.0000e+00 1.0000e+00
      -13  1    1    2    0    0 -1.1587778853e+01 +1.5731978818e+02 -3.2871506036e+01 1.6113453834e+02 1.0566000000e-01 0.0000e+00 -1.0000e+00
       13  1    1    2    0    0 +5.2817887798e+01 -1.5468871607e+00 +2.7400284147e+01 5.9522339224e+01 1.0566000000e-01 0.0000e+00 -1.0000e+00
<mgrwt>
<rscale>  0 0.49989089E+03</rscale>
<asrwt>0</asrwt>
<pdfrwt beam="1">  1        2 0.47815268E-01 0.49989089E+03</pdfrwt>
<pdfrwt beam="2">  1       -2 0.81658965E-01 0.49989089E+03</pdfrwt>
<totfact> 0.14219220E+02</totfact>
</mgrwt>
</event>
<event>
 7      1 +1.8175624e-03 9.18180800e+01 7.81860800e-03 1.29850800e-01
        2 -1    0    0  501    0 +0.0000000000e+00 +0.0000000000e+00 +3.8666987005e+02 3.8666987006e+02 2.5500000000e-03 0.0000e+00 -1.0000e+00
       -2 -1    0    0    0  501 -0.0000000000e+00 -0.0000000000e+00 -5.4507480774e+00 5.4507486739e+00 2.5500000000e-03 0.0000e+00 1.0000e+00
       23  2    1    2    0    0 +2.2204460493e-15 +3.5527136788e-15 +3.8121912198e+02 3.9212061874e+02 9.1818084698e+01 0.0000e+00 0.0000e+00
      -13  1    3    3    0    0 +1.7346122131e+01 -3.0508721990e+00 +6.1242811535e+01 6.3725104181e+01 1.0566000000e-01 0.0000e+00 -1.0000e+00
       13  1    3    3    0    0 -2.2438948349e+01 +6.4567844486e+00 +1.3763875394e+02 1.3960528005e+02 1.0566000000e-01 0.0000e+00 1.0000e+00
      -13  1    3    3    0    0 +6.2471205991e+00 -2.5622946302e+01 +1.0946860792e+02 1.1260084003e+02 1.0566000000e-01 0.0000e+00 -1.0000e+00
       13  1    3    3    0    0 -1.1542943814e+00 +2.2217034053e+01 +7.2868948585e+01 7.6189394469e+01 1.0566000000e-01 0.0000e+00 1.0000e+00
<mgrwt>
<rscale>  0 0.91818085E+02</rscale>
<asrwt>0</asrwt>
<pdfrwt beam="1">  1        2 0.96667456E-01 0.91818085E+02</pdfrwt>
<pdfrwt beam="2">  1       -2 0.13626873E-02 0.91818085E+02</pdfrwt>
<totfact> 0.57491513E+04</totfact>
</mgrwt>
</event>
<event>
 6      1 +1.8175624e-03 2.63417600e+02 7.81860800e-03 1.10510700e-01
       -1 -1    0    0    0  501 -0.0000000000e+00 +0.0000000000e+00 +5.1144712612e+01 5.1144712861e+01 5.0400000000e-03 0.0000e+00 1.0000e+00
        1 -1    0    0  501    0 +0.0000000000e+00 -0.0000000000e+00 -3.3917898290e+02 3.3917898294e+02 5.0400000000e-03 0.0000e+00 -1.0000e+00
      -13  1    1    2    0    0 -1.7688793702e+01 -3.2300250026e+01 -1.2457269426e+02 1.2990214353e+02 1.0566000000e-01 0.0000e+00 -1.0000e+00
       13  1    1    2    0    0 +7.5488929736e+01 +6.3406741903e+01 -1.5772119672e+02 1.8599725936e+02 1.0566000000e-01 0.0000e+00 -1.0000e+00
      -13  1    1    2    0    0 -2.0559853432e+01 -5.0287429451e+00 -1.7501272515e+01 2.7464550468e+01 1.0566000000e-01 0.0000e+00 1.0000e+00
       13  1    1    2    0    0 -3.7240282602e+01 -2.6077748932e+01 +1.1760893199e+01 4.6959742445e+01 1.0566000000e-01 0.0000e+00 1.0000e+00
<mgrwt>
<rscale>  0 0.26341763E+03</rscale>
<asrwt>0</asrwt>
<pdfrwt beam="1">  1        1 0.84794739E-01 0.26341763E+03</pdfrwt>
<pdfrwt beam="2">  1       -1 0.12786179E-01 0.26341763E+03</pdfrwt>
<totfact> 0.16378802E+03</totfact>
</mgrwt>
</event>
<event>
 6      1 +1.8175624e-03 3.64772600e+02 7.81860800e-03 1.05671000e-01
        2 -1    0    0  501    0 +0.0000000000e+00 +0.0000000000e+00 +2.5448265689e+02 2.5448265690e+02 2.5500000000e-03 0.0000e+00 -1.0000e+00
       -2 -1    0    0    0  501 -0.0000000000e+00 -0.0000000000e+00 -1.3071523969e+02 1.3071523971e+02 2.5500000000e-03 0.0000e+00 1.0000e+00
      -13  1    1    2    0    0 +9.2151723940e+00 +3.1223994943e+01 +2.4129916624e+01 4.0523095918e+01 1.0566000000e-01 0.0000e+00 1.0000e+00
       13  1    1    2    0    0 -6.2999363231e+01 -1.6754943155e+01 -4.1910217950e+01 7.7499196256e+01 1.0566000000e-01 0.0000e+00 -1.0000e+00
      -13  1    1    2    0    0 -8.4449157128e+01 -1.9921832834e+01 +3.9875069702e+01 9.5491213789e+01 1.0566000000e-01 0.0000e+00 1.0000e+00
       13  1    1    2    0    0 +1.3823334797e+02 +5.4527810457e+00 +1.0167264882e+02 1.7168439065e+02 1.0566000000e-01 0.0000e+00 -1.0000e+00
<mgrwt>
<rscale>  0 0.36477259E+03</rscale>
<asrwt>0</asrwt>
<pdfrwt beam="1">  1        2 0.63620664E-01 0.36477259E+03</pdfrwt>
<pdfrwt beam="2">  1       -2 0.32678810E-01 0.36477259E+03</pdfrwt>
<totfact> 0.67413154E+02</totfact>
</mgrwt>
</event>
<event>
 6      1 +1.8175624e-03 1.88832800e+02 7.81860800e-03 1.15951800e-01
       -2 -1    0    0    0  501 -0.0000000000e+00 +0.0000000000e+00 +7.0878964847e+01 7.0878964893e+01 2.5500000000e-03 0.0000e+00 -1.0000e+00
        2 -1    0    0  501    0 +0.0000000000e+00 -0.0000000000e+00 -1.2577015348e+02 1.2577015350e+02 2.5500000000e-03 0.0000e+00 1.0000e+00
      -13  1    1    2    0    0 -3.3048433344e+01 +4.7335424454e+01 -3.4091232308e+01 6.7045243224e+01 1.0566000000e-01 0.0000e+00 -1.0000e+00
       13  1    1    2    0    0 +2.7066823017e+01 -1.7102284547e+01 +4.5253188960e+01 5.5434315366e+01 1.0566000000e-01 0.0000e+00 -1.0000e+00
      -13  1    1    2    0    0 +3.0760317581e+00 -1.4045126828e+01 -4.6216075023e+01 4.8401077608e+01 1.0566000000e-01 0.0000e+00 1.0000e+00
       13  1    1    2    0    0 +2.9055785681e+00 -1.6188013079e+01 -1.9837070260e+01 2.5768482198e+01 1.0566000000e-01 0.0000e+00 1.0000e+00
<mgrwt>
<rscale>  0 0.18883282E+03</rscale>
<asrwt>0</asrwt>
<pdfrwt beam="1">  1        2 0.31442538E-01 0.18883282E+03</pdfrwt>
<pdfrwt beam="2">  1       -2 0.17719741E-01 0.18883282E+03</pdfrwt>
<totfact> 0.42058627E+03</totfact>
</mgrwt>
</event>
<event>
 6      1 +1.8175624e-03 3.08649300e+02 7.81860800e-03 1.08099500e-01
       -2 -1    0    0    0  501 -0.0000000000e+00 +0.0000000000e+00 +9.5005186009e+01 9.5005186043e+01 2.5500000000e-03 0.0000e+00 1.0000e+00
        2 -1    0    0  501    0 +0.0000000000e+00 -0.0000000000e+00 -2.5068214653e+02 2.5068214654e+02 2.5500000000e-03 0.0000e+00 -1.0000e+00
      -13  1    1    2    0    0 +1.8795956495e+00 +3.1117733971e+01 +4.2298559182e+01 5.2545461462e+01 1.0566000000e-01 0.0000e+00 1.0000e+00
       13  1    1    2    0    0 +2.3508692113e+01 -1.9317191382e+01 -4.0867861888e+01 5.0951013602e+01 1.0566000000e-01 0.0000e+00 1.0000e+00
      -13  1    1    2    0    0 -8.9433846505e+00 +7.7346321920e+01 -2.4625350709e+01 8.1663068183e+01 1.0566000000e-01 0.0000e+00 -1.0000e+00
       13  1    1    2    0    0 -1.6444903112e+01 -8.9146864509e+01 -1.3248230711e+02 1.6052778934e+02 1.0566000000e-01 0.0000e+00 -1.0000e+00
<mgrwt>
<rscale>  0 0.30864934E+03</rscale>
<asrwt>0</asrwt>
<pdfrwt beam="1">  1        2 0.62670535E-01 0.30864934E+03</pdfrwt>
<pdfrwt beam="2">  1       -2 0.23751297E-01 0.30864934E+03</pdfrwt>
<totfact> 0.12203583E+03</totfact>
</mgrwt>
</event>
<event>
 6      1 +1.8175624e-03 2.71752100e+02 7.81860800e-03 1.10028100e-01
        2 -1    0    0  501    0 +0.0000000000e+00 +0.0000000000e+00 +3.0331316899e+02 3.0331316901e+02 2.5500000000e-03 0.0000e+00 1.0000e+00
       -2 -1    0    0    0  501 -0.0000000000e+00 -0.0000000000e+00 -6.0868760090e+01 6.0868760144e+01 2.5500000000e-03 0.0000e+00 -1.0000e+00
      -13  1    1    2    0    0 -4.7302693053e+01 -5.4068371591e+00 +2.0775810183e+01 5.1946358014e+01 1.0566000000e-01 0.0000e+00 1.0000e+00
       13  1    1    2    0    0 +6.9504667542e+01 -1.0437830406e+01 +2.5571791921e+01 7.4791542434e+01 1.0566000000e-01 0.0000e+00 -1.0000e+00
      -13  1    1    2    0    0 +4.4725107079e+01 +3.8639811910e+01 +6.0839839154e+01 8.4822564568e+01 1.0566000000e-01 0.0000e+00 -1.0000e+00
       13  1    1    2    0    0 -6.6927081568e+01 -2.2795144345e+01 +1.3525696765e+02 1.5262146413e+02 1.0566000000e-01 0.0000e+00 1.0000e+00
<mgrwt>
<rscale>  0 0.27175207E+03</rscale>
<asrwt>0</asrwt>
<pdfrwt beam="1">  1        2 0.75828292E-01 0.27175207E+03</pdfrwt>
<pdfrwt beam="2">  1       -2 0.15217190E-01 0.27175207E+03</pdfrwt>
<totfact> 0.21103096E+03</totfact>
</mgrwt>
</event>
<event>
 6      1 +1.8175624e-03 6.17699600e+02 7.81860800e-03 9.86935000e-02
        1 -1    0    0  501    0 +0.0000000000e+00 +0.0000000000e+00 +9.7070854479e+02 9.7070854480e+02 5.0400000000e-03 0.0000e+00 -1.0000e+00
       -1 -1    0    0    0  501 -0.0000000000e+00 -0.0000000000e+00 -9.8266569277e+01 9.8266569406e+01 5.0400000000e-03 0.0000e+00 1.0000e+00
      -13  1    1    2    0    0 -1.4908417835e+02 +1.4592863692e+02 +5.8189991648e+02 6.1816566006e+02 1.0566000000e-01 0.0000e+00 1.0000e+00
       13  1    1    2    0    0 +1.2267984395e+01 -1.5359633281e+02 +5.1233887059e+01 1.6237998412e+02 1.0566000000e-01 0.0000e+00 -1.0000e+00
      -13  1    1    2    0    0 +1.5646671621e+01 +1.4053914407e+01 +1.0552623722e+00 2.1058385164e+01 1.0566000000e-01 0.0000e+00 1.0000e+00
       13  1    1    2    0    0 +1.2116952233e+02 -6.3862185138e+00 +2.3825290960e+02 2.6737108487e+02 1.0566000000e-01 0.0000e+00 -1.0000e+00
<mgrwt>
<rscale>  0 0.61769960E+03</rscale>
<asrwt>0</asrwt>
<pdfrwt beam="1">  1        1 0.24267714E+00 0.61769960E+03</pdfrwt>
<pdfrwt beam="2">  1       -1 0.24566642E-01 0.61769960E+03</pdfrwt>
<totfact> 0.86720963E+01</totfact>
</mgrwt>
</event>
<event>
 6      1 +1.8175624e-03 8.78000300e+02 7.81860800e-03 9.45350800e-02
        2 -1    0    0  501    0 +0.0000000000e+00 +0.0000000000e+00 +6.5637307607e+02 6.5637307608e+02 2.5500000000e-03 0.0000e+00 -1.0000e+00
       -2 -1    0    0    0  501 -0.0000000000e+00 -0.0000000000e+00 -2.9361520417e+02 2.9361520418e+02 2.5500000000e-03 0.0000e+00 1.0000e+00
      -13  1    1    2    0    0 +3.8474415563e+02 +7.9517676712e+01 +1.0523009673e+02 4.0672412103e+02 1.0566000000e-01 0.0000e+00 1.0000e+00
       13  1    1    2    0    0 -5.4820679220e+01 -3.3239145561e+01 +1.8736744441e+02 1.9803211370e+02 1.0566000000e-01 0.0000e+00 -1.0000e+00
      -13  1    1    2    0    0 -4.9734402976e+01 -2.6391854375e+01 +2.0867228419e+01 6.0045759240e+01 1.0566000000e-01 0.0000e+00 1.0000e+00
       13  1    1    2    0    0 -2.8018907343e+02 -1.9886676777e+01 +4.9293102338e+01 2.8518628629e+02 1.0566000000e-01 0.0000e+00 -1.0000e+00
<mgrwt>
<rscale>  0 0.87800026E+03</rscale>
<asrwt>0</asrwt>
<pdfrwt beam="1">  1        2 0.16409327E+00 0.87800026E+03</pdfrwt>
<pdfrwt beam="2">  1       -2 0.73403802E-01 0.87800026E+03</pdfrwt>
<totfact> 0.38477330E+01</totfact>
</mgrwt>
</event>
<event>
 6      1 +1.8175624e-03 2.25639400e+02 7.81860800e-03 1.12974700e-01
        1 -1    0    0  501    0 +0.0000000000e+00 +0.0000000000e+00 +3.2950228716e+01 3.2950229102e+01 5.0400000000e-03 0.0000e+00 -1.0000e+00
       -1 -1    0    0    0  501 -0.0000000000e+00 -0.0000000000e+00 -3.8628810507e+02 3.8628810510e+02 5.0400000000e-03 0.0000e+00 1.0000e+00
      -13  1    1    2    0    0 -8.8651303614e+00 -9.7089722628e+00 +1.0682556240e+01 1.6940568189e+01 1.0566000000e-01 0.0000e+00 1.0000e+00
       13  1    1    2    0    0 +2.8688673149e+01 +5.8807973562e+01 -1.4830971707e+02 1.6210244002e+02 1.0566000000e-01 0.0000e+00 -1.0000e+00
      -13  1    1    2    0    0 +1.5000611105e+00 -7.2103076310e+01 -1.7093303323e+02 1.8552416772e+02 1.0566000000e-01 0.0000e+00 1.0000e+00
       13  1    1    2    0    0 -2.1323603898e+01 +2.3004075010e+01 -4.4777682300e+01 5.4671158269e+01 1.0566000000e-01 0.0000e+00 -1.0000e+00
<mgrwt>
<rscale>  0 0.22563937E+03</rscale>
<asrwt>0</asrwt>
<pdfrwt beam="1">  1        1 0.82375584E-02 0.22563937E+03</pdfrwt>
<pdfrwt beam="2">  1       -1 0.96572012E-01 0.22563937E+03</pdfrwt>
<totfact> 0.90689254E+02</totfact>
</mgrwt>
</event>
<event>
 6      1 +1.8175624e-03 2.04202600e+02 7.81860800e-03 1.14624100e-01
       -2 -1    0    0    0  501 -0.0000000000e+00 +0.0000000000e+00 +1.6968535583e+01 1.6968535775e+01 2.5500000000e-03 0.0000e+00 -1.0000e+00
        2 -1    0    0  501    0 +0.0000000000e+00 -0.0000000000e+00 -6.1435349647e+02 6.1435349647e+02 2.5500000000e-03 0.0000e+00 1.0000e+00
      -13  1    1    2    0    0 +3.0351897856e+00 -2.6288926448e+01 -1.1198320118e+02 1.1506766940e+02 1.0566000000e-01 0.0000e+00 1.0000e+00
       13  1    1    2    0    0 +6.6675920694e+00 +4.9211434431e+01 -2.5291659220e+02 2.5774606852e+02 1.0566000000e-01 0.0000e+00 -1.0000e+00
      -13  1    1    2    0    0 -3.9136177430e+01 -5.4995611800e+01 -1.6413835821e+02 1.7747554621e+02 1.0566000000e-01 0.0000e+00 1.0000e+00
       13  1    1    2    0    0 +2.9433395575e+01 +3.2073103817e+01 -6.8346809291e+01 8.1032748119e+01 1.0566000000e-01 0.0000e+00 -1.0000e+00
<mgrwt>
<rscale>  0 0.20420264E+03</rscale>
<asrwt>0</asrwt>
<pdfrwt beam="1">  1        2 0.15358830E+00 0.20420264E+03</pdfrwt>
<pdfrwt beam="2">  1       -2 0.42421360E-02 0.20420264E+03</pdfrwt>
<totfact> 0.65374832E+03</totfact>
</mgrwt>
</event>
<event>
 7      1 +1.8175624e-03 9.06895900e+01 7.81860800e-03 1.30119000e-01
        1 -1    0    0  501    0 +0.0000000000e+00 +0.0000000000e+00 +2.5241401894e+01 2.5241402398e+01 5.0400000000e-03 0.0000e+00 -1.0000e+00
       -1 -1    0    0    0  501 -0.0000000000e+00 -0.0000000000e+00 -8.1459445069e+01 8.1459445225e+01 5.0400000000e-03 0.0000e+00 1.0000e+00
       23  2    1    2    0    0 +0.0000000000e+00 +3.5527136788e-15 -5.6218043175e+01 1.0670084762e+02 9.0689594249e+01 0.0000e+00 0.0000e+00
      -13  1    3    3    0    0 +1.8264550101e+01 -2.0107996767e+01 -4.6225063064e+01 5.3616163083e+01 1.0566000000e-01 0.0000e+00 1.0000e+00
       13  1    3    3    0    0 -5.0735949717e+00 +1.8889665901e+01 +4.6750707372e-01 1.9565034390e+01 1.0566000000e-01 0.0000e+00 1.0000e+00
      -13  1    3    3    0    0 -3.5204238528e+00 -1.3542475806e+01 -6.5238176116e+00 1.5439021838e+01 1.0566000000e-01 0.0000e+00 -1.0000e+00
       13  1    3    3    0    0 -9.6705312768e+00 +1.4760806672e+01 -3.9366695726e+00 1.8080628312e+01 1.0566000000e-01 0.0000e+00 -1.0000e+00
<mgrwt>
<rscale>  0 0.90689594E+02</rscale>
<asrwt>0</asrwt>
<pdfrwt beam="1">  1        1 0.63103507E-02 0.90689594E+02</pdfrwt>
<pdfrwt beam="2">  1       -1 0.20364861E-01 0.90689594E+02</pdfrwt>
<totfact> 0.20836488E+04</totfact>
</mgrwt>
</event>
<event>
 6      1 +1.8175624e-03 2.33137200e+02 7.81860800e-03 1.12445100e-01
       -2 -1    0    0    0  501 -0.0000000000e+00 +0.0000000000e+00 +9.3096803305e+01 9.3096803340e+01 2.5500000000e-03 0.0000e+00 1.0000e+00
        2 -1    0    0  501    0 +0.0000000000e+00 -0.0000000000e+00 -1.4595817546e+02 1.4595817548e+02 2.5500000000e-03 0.0000e+00 -1.0000e+00
      -13  1    1    2    0    0 -5.5825732102e+01 -6.9214610611e+01 -3.9381860418e-01 8.8923230620e+01 1.0566000000e-01 0.0000e+00 1.0000e+00
       13  1    1    2    0    0 +2.2687524452e+01 +4.8803851171e+01 +2.1760126514e+01 5.8052165548e+01 1.0566000000e-01 0.0000e+00 1.0000e+00
      -13  1    1    2    0    0 +2.7466187504e+01 -5.2220408657e+00 -3.3642403816e+01 4.3743384247e+01 1.0566000000e-01 0.0000e+00 -1.0000e+00
       13  1    1    2    0    0 +5.6720201458e+00 +2.5632800306e+01 -4.0585276247e+01 4.8336198404e+01 1.0566000000e-01 0.0000e+00 -1.0000e+00
<mgrwt>
<rscale>  0 0.23313721E+03</rscale>
<asrwt>0</asrwt>
<pdfrwt beam="1">  1        2 0.36489544E-01 0.23313721E+03</pdfrwt>
<pdfrwt beam="2">  1       -2 0.23274201E-01 0.23313721E+03</pdfrwt>
<totfact> 0.22621137E+03</totfact>
</mgrwt>
</event>
<event>
 6      1 +1.8175624e-03 5.27364500e+02 7.81860800e-03 1.00687300e-01
        2 -1    0    0  501    0 +0.0000000000e+00 +0.0000000000e+00 +1.6882360668e+03 1.6882360668e+03 2.5500000000e-03 0.0000e+00 -1.0000e+00
       -2 -1    0    0    0  501 -0.0000000000e+00 -0.0000000000e+00 -4.1184003853e+01 4.1184003932e+01 2.5500000000e-03 0.0000e+00 1.0000e+00
      -13  1    1    2    0    0 +1.4257880455e+02 -5.5416112221e+01 +1.8578807404e+02 2.4065926249e+02 1.0566000000e-01 0.0000e+00 1.0000e+00
       13  1    1    2    0    0 -8.5038274275e+01 -6.2922334393e+01 +5.8012937785e+02 5.8969554387e+02 1.0566000000e-01 0.0000e+00 1.0000e+00
      -13  1    1    2    0    0 -7.9872268065e+01 +2.9799401483e+01 +3.5711487568e+02 3.6714932811e+02 1.0566000000e-01 0.0000e+00 -1.0000e+00
       13  1    1    2    0    0 +2.2331737792e+01 +8.8539045131e+01 +5.2401973542e+02 5.3191593631e+02 1.0566000000e-01 0.0000e+00 -1.0000e+00
<mgrwt>
<rscale>  0 0.52736447E+03</rscale>
<asrwt>0</asrwt>
<pdfrwt beam="1">  1        2 0.42205901E+00 0.52736447E+03</pdfrwt>
<pdfrwt beam="2">  1       -2 0.10296001E-01 0.52736447E+03</pdfrwt>
<totfact> 0.17629316E+02</totfact>
</mgrwt>
</event>
<event>
 6      1 +1.8175624e-03 2.69544500e+02 7.81860800e-03 1.10154100e-01
       -2 -1    0    0    0  501 -0.0000000000e+00 +0.0000000000e+00 +1.7634351406e+02 1.7634351408e+02 2.5500000000e-03 0.0000e+00 1.0000e+00
        2 -1    0    0  501    0 +0.0000000000e+00 -0.0000000000e+00 -1.0300098608e+02 1.0300098611e+02 2.5500000000e-03 0.0000e+00 -1.0000e+00
      -13  1    1    2    0    0 -3.8617407431e+01 +6.7291295557e+01 +4.2100965046e+01 8.8271881346e+01 1.0566000000e-01 0.0000e+00 1.0000e+00
       13  1    1    2    0    0 +4.5149698619e+01 -4.1438321451e+01 -2.3513245203e+01 6.5639268994e+01 1.0566000000e-01 0.0000e+00 -1.0000e+00
      -13  1    1    2    0    0 +9.4923943877e+00 -8.5602520398e+00 -3.2566494313e+01 3.4985299513e+01 1.0566000000e-01 0.0000e+00 1.0000e+00
       13  1    1    2    0    0 -1.6024685575e+01 -1.7292722067e+01 +8.7321302451e+01 9.0448050339e+01 1.0566000000e-01 0.0000e+00 -1.0000e+00
<mgrwt>
<rscale>  0 0.26954447E+03</rscale>
<asrwt>0</asrwt>
<pdfrwt beam="1">  1        2 0.25750247E-01 0.26954447E+03</pdfrwt>
<pdfrwt beam="2">  1       -2 0.44085878E-01 0.26954447E+03</pdfrwt>
<totfact> 0.10263137E+03</totfact>
</mgrwt>
</event>
<event>
 6      1 +1.8175624e-03 4.08391300e+02 7.81860800e-03 1.04091200e-01
       -2 -1    0    0    0  501 -0.0000000000e+00 +0.0000000000e+00 +2.8108808785e+01 2.8108808901e+01 2.5500000000e-03 0.0000e+00 -1.0000e+00
        2 -1    0    0  501    0 +0.0000000000e+00 -0.0000000000e+00 -1.4833733397e+03 1.4833733397e+03 2.5500000000e-03 0.0000e+00 1.0000e+00
      -13  1    1    2    0    0 -1.4855415759e+02 -5.1096301630e+01 -6.2923184976e+02 6.4854599042e+02 1.0566000000e-01 0.0000e+00 1.0000e+00
       13  1    1    2    0    0 +1.0796477374e+02 +2.7494397725e+01 -2.6464090938e+02 2.8713612862e+02 1.0566000000e-01 0.0000e+00 -1.0000e+00
      -13  1    1    2    0    0 -1.1957488932e+01 +6.1633615321e+01 -2.5472224856e+02 2.6234541954e+02 1.0566000000e-01 0.0000e+00 1.0000e+00
       13  1    1    2    0    0 +5.2546872774e+01 -3.8031711416e+01 -3.0666952326e+02 3.1345461007e+02 1.0566000000e-01 0.0000e+00 -1.0000e+00
<mgrwt>
<rscale>  0 0.40839127E+03</rscale>
<asrwt>0</asrwt>
<pdfrwt beam="1">  1        2 0.37084307E+00 0.40839127E+03</pdfrwt>
<pdfrwt beam="2">  1       -2 0.70272072E-02 0.40839127E+03</pdfrwt>
<totfact> 0.50848222E+02</totfact>
</mgrwt>
</event>
<event>
 6      1 +1.8175624e-03 2.14435800e+02 7.81860800e-03 1.13810100e-01
        2 -1    0    0  501    0 +0.0000000000e+00 +0.0000000000e+00 +2.5612069649e+02 2.5612069650e+02 2.5500000000e-03 0.0000e+00 1.0000e+00
       -2 -1    0    0    0  501 -0.0000000000e+00 -0.0000000000e+00 -4.4883841912e+01 4.4883841984e+01 2.5500000000e-03 0.0000e+00 -1.0000e+00
      -13  1    1    2    0    0 -1.7582353648e+01 -2.5156180887e+01 -4.4683826751e+00 3.1015322091e+01 1.0566000000e-01 0.0000e+00 -1.0000e+00
       13  1    1    2    0    0 +3.7615919615e+01 +4.5053040907e+01 +9.6145161771e+01 1.1264385114e+02 1.0566000000e-01 0.0000e+00 1.0000e+00
      -13  1    1    2    0    0 +3.0505262323e+01 +1.8861962139e+01 +2.6571022897e+01 4.4636028800e+01 1.0566000000e-01 0.0000e+00 -1.0000e+00
       13  1    1    2    0    0 -5.0538828290e+01 -3.8758822158e+01 +9.2989052585e+01 1.1270933646e+02 1.0566000000e-01 0.0000e+00 1.0000e+00
<mgrwt>
<rscale>  0 0.21443583E+03</rscale>
<asrwt>0</asrwt>
<pdfrwt beam="1">  1        2 0.64030173E-01 0.21443583E+03</pdfrwt>
<pdfrwt beam="2">  1       -2 0.11220961E-01 0.21443583E+03</pdfrwt>
<totfact> 0.41525924E+03</totfact>
</mgrwt>
</event>
<event>
 6      1 +1.8175624e-03 3.16905300e+02 7.81860800e-03 1.07708200e-01
       -2 -1    0    0    0  501 -0.0000000000e+00 +0.0000000000e+00 +2.9310062678e+01 2.9310062789e+01 2.5500000000e-03 0.0000e+00 1.0000e+00
        2 -1    0    0  501    0 +0.0000000000e+00 -0.0000000000e+00 -8.5660836190e+02 8.5660836190e+02 2.5500000000e-03 0.0000e+00 -1.0000e+00
      -13  1    1    2    0    0 -9.1424559010e+01 -4.2881235968e+00 -8.5402518209e+01 1.2518162515e+02 1.0566000000e-01 0.0000e+00 1.0000e+00
       13  1    1    2    0    0 -1.7392031377e+01 -8.6383695591e+00 -4.7209194995e+01 5.1047266725e+01 1.0566000000e-01 0.0000e+00 1.0000e+00
      -13  1    1    2    0    0 +1.1430962700e+02 +2.2704483109e+01 -6.8507951943e+02 6.9492168155e+02 1.0566000000e-01 0.0000e+00 -1.0000e+00
       13  1    1    2    0    0 -5.4930366148e+00 -9.7779899532e+00 -9.6070665906e+00 1.4767851275e+01 1.0566000000e-01 0.0000e+00 -1.0000e+00
<mgrwt>
<rscale>  0 0.31690532E+03</rscale>
<asrwt>0</asrwt>
<pdfrwt beam="1">  1        2 0.21415201E+00 0.31690532E+03</pdfrwt>
<pdfrwt beam="2">  1       -2 0.73275185E-02 0.31690532E+03</pdfrwt>
<totfact> 0.16923785E+03</totfact>
</mgrwt>
</event>
<event>
 6      1 +1.8175624e-03 2.64393800e+02 7.81860800e-03 1.10453200e-01
        2 -1    0    0  501    0 +0.0000000000e+00 +0.0000000000e+00 +1.7458931296e+02 1.7458931298e+02 2.5500000000e-03 0.0000e+00 -1.0000e+00
       -2 -1    0    0    0  501 -0.0000000000e+00 -0.0000000000e+00 -1.0009787105e+02 1.0009787109e+02 2.5500000000e-03 0.0000e+00 1.0000e+00
      -13  1    1    2    0    0 +3.8403686865e+01 -2.2796757092e+00 +1.6041969136e+01 4.1682082769e+01 1.0566000000e-01 0.0000e+00 1.0000e+00
       13  1    1    2    0    0 -3.1421035198e+01 -1.9512825363e+01 -4.9444839291e+00 3.7316094275e+01 1.0566000000e-01 0.0000e+00 -1.0000e+00
      -13  1    1    2    0    0 -2.5412999095e+01 -1.4695608333e+01 -5.9406071533e+01 6.6263669732e+01 1.0566000000e-01 0.0000e+00 1.0000e+00
       13  1    1    2    0    0 +1.8430347428e+01 +3.6488109405e+01 +1.2280002824e+02 1.2942533729e+02 1.0566000000e-01 0.0000e+00 -1.0000e+00
<mgrwt>
<rscale>  0 0.26439379E+03</rscale>
<asrwt>0</asrwt>
<pdfrwt beam="1">  1        2 0.43647328E-01 0.26439379E+03</pdfrwt>
<pdfrwt beam="2">  1       -2 0.25024468E-01 0.26439379E+03</pdfrwt>
<totfact> 0.16454643E+03</totfact>
</mgrwt>
</event>
<event>
 6      1 +1.8175624e-03 2.66691200e+02 7.81860800e-03 1.10318800e-01
       -2 -1    0    0    0  501 -0.0000000000e+00 +0.0000000000e+00 +2.2552751347e+01 2.2552751491e+01 2.5500000000e-03 0.0000e+00 1.0000e+00
        2 -1    0    0  501    0 +0.0000000000e+00 -0.0000000000e+00 -7.8842041760e+02 7.8842041761e+02 2.5500000000e-03 0.0000e+00 -1.0000e+00
      -13  1    1    2    0    0 +3.2462173328e+01 +5.0371073026e+01 -2.2748334802e+02 2.3524396376e+02 1.0566000000e-01 0.0000e+00 -1.0000e+00
       13  1    1    2    0    0 +2.0617216836e+01 -4.8823315621e+01 -1.8102194313e+02 1.8862062675e+02 1.0566000000e-01 0.0000e+00 1.0000e+00
      -13  1    1    2    0    0 +7.2014660645e+00 +3.6499062646e+01 -1.9882658100e+01 4.2182626100e+01 1.0566000000e-01 0.0000e+00 1.0000e+00
       13  1    1    2    0    0 -6.0280856229e+01 -3.8046820051e+01 -3.3747971701e+02 3.4492595249e+02 1.0566000000e-01 0.0000e+00 -1.0000e+00
<mgrwt>
<rscale>  0 0.26669120E+03</rscale>
<asrwt>0</asrwt>
<pdfrwt beam="1">  1        2 0.19710501E+00 0.26669120E+03</pdfrwt>
<pdfrwt beam="2">  1       -2 0.56381905E-02 0.26669120E+03</pdfrwt>
<totfact> 0.29258086E+03</totfact>
</mgrwt>
</event>
<event>
 6      1 +1.8175624e-03 1.71171900e+02 7.81860800e-03 1.17663100e-01
       -2 -1    0    0    0  501 -0.0000000000e+00 +0.0000000000e+00 +2.1826071349e+02 2.1826071351e+02 2.5500000000e-03 0.0000e+00 1.0000e+00
        2 -1    0    0  501    0 +0.0000000000e+00 -0.0000000000e+00 -3.3560562617e+01 3.3560562714e+01 2.5500000000e-03 0.0000e+00 -1.0000e+00
      -13  1    1    2    0    0 -1.2466275043e+00 -1.7363223010e+01 +1.5743799907e+01 2.3471557106e+01 1.0566000000e-01 0.0000e+00 1.0000e+00
       13  1    1    2    0    0 -3.8123331522e+01 -2.6107928505e+01 +2.6910730532e+01 5.3471589830e+01 1.0566000000e-01 0.0000e+00 -1.0000e+00
      -13  1    1    2    0    0 +2.4648136346e+01 +3.0143168533e+01 +1.4887103578e+02 1.5387897092e+02 1.0566000000e-01 0.0000e+00 1.0000e+00
       13  1    1    2    0    0 +1.4721822680e+01 +1.3327982983e+01 -6.8254153397e+00 2.0999158364e+01 1.0566000000e-01 0.0000e+00 -1.0000e+00
<mgrwt>
<rscale>  0 0.17117187E+03</rscale>
<asrwt>0</asrwt>
<pdfrwt beam="1">  1        2 0.83901408E-02 0.17117187E+03</pdfrwt>
<pdfrwt beam="2">  1       -2 0.54565177E-01 0.17117187E+03</pdfrwt>
<totfact> 0.25078587E+03</totfact>
</mgrwt>
</event>
<event>
 7      1 +1.8175624e-03 7.99565200e+01 7.81860800e-03 1.32917500e-01
       -2 -1    0    0    0  501 -0.0000000000e+00 +0.0000000000e+00 +2.1814411867e+01 2.1814412016e+01 2.5500000000e-03 0.0000e+00 -1.0000e+00
        2 -1    0    0  501    0 +0.0000000000e+00 -0.0000000000e+00 -7.3266304839e+01 7.3266304883e+01 2.5500000000e-03 0.0000e+00 1.0000e+00
       23  2    1    2    0    0 -3.5527136788e-15 -3.5527136788e-15 -5.1451892972e+01 9.5080716899e+01 7.9956522158e+01 0.0000e+00 0.0000e+00
      -13  1    3    3    0    0 -6.1958810609e+00 +1.6849323704e+01 -3.0936082411e+01 3.5767876795e+01 1.0566000000e-01 0.0000e+00 -1.0000e+00
       13  1    3    3    0    0 +6.0920381555e+00 -1.5417793634e+01 -2.6829249140e+00 1.6793764901e+01 1.0566000000e-01 0.0000e+00 1.0000e+00
      -13  1    3    3    0    0 +1.4588723430e+01 +8.0185438879e+00 -1.8905682853e+01 2.5190551911e+01 1.0566000000e-01 0.0000e+00 1.0000e+00
       13  1    3    3    0    0 -1.4484880524e+01 -9.4500739583e+00 +1.0727972063e+00 1.7328523293e+01 1.0566000000e-01 0.0000e+00 -1.0000e+00
<mgrwt>
<rscale>  0 0.79956522E+02</rscale>
<asrwt>0</asrwt>
<pdfrwt beam="1">  1        2 0.18316576E-01 0.79956522E+02</pdfrwt>
<pdfrwt beam="2">  1       -2 0.54536032E-02 0.79956522E+02</pdfrwt>
<totfact> 0.44951934E+04</totfact>
</mgrwt>
</event>
<event>
 6      1 +1.8175624e-03 2.92597000e+02 7.81860800e-03 1.08900100e-01
        2 -1    0    0  501    0 +0.0000000000e+00 +0.0000000000e+00 +4.5103014693e+02 4.5103014693e+02 2.5500000000e-03 0.0000e+00 -1.0000e+00
       -2 -1    0    0    0  501 -0.0000000000e+00 -0.0000000000e+00 -4.7454156099e+01 4.7454156168e+01 2.5500000000e-03 0.0000e+00 1.0000e+00
      -13  1    1    2    0    0 +9.9780388919e+00 -2.4298062677e+01 -3.6770321964e+00 2.6523364036e+01 1.0566000000e-01 0.0000e+00 -1.0000e+00
       13  1    1    2    0    0 -1.7343575687e+01 -3.0022465578e+01 +2.0211039630e+02 2.0506284772e+02 1.0566000000e-01 0.0000e+00 -1.0000e+00
      -13  1    1    2    0    0 +8.2965604822e+01 +1.1333620741e+01 +9.7979218921e+01 1.2888631055e+02 1.0566000000e-01 0.0000e+00 1.0000e+00
       13  1    1    2    0    0 -7.5600068027e+01 +4.2986907514e+01 +1.0716340780e+02 1.3801178080e+02 1.0566000000e-01 0.0000e+00 1.0000e+00
<mgrwt>
<rscale>  0 0.29259703E+03</rscale>
<asrwt>0</asrwt>
<pdfrwt beam="1">  1        2 0.11275753E+00 0.29259703E+03</pdfrwt>
<pdfrwt beam="2">  1       -2 0.11863539E-01 0.29259703E+03</pdfrwt>
<totfact> 0.19953570E+03</totfact>
</mgrwt>
</event>
<event>
 6      1 +1.8175624e-03 4.80215100e+02 7.81860800e-03 1.01907600e-01
        1 -1    0    0  501    0 +0.0000000000e+00 +0.0000000000e+00 +3.5779563967e+02 3.5779563970e+02 5.0400000000e-03 0.0000e+00 -1.0000e+00
       -1 -1    0    0    0  501 -0.0000000000e+00 -0.0000000000e+00 -1.6113006663e+02 1.6113006670e+02 5.0400000000e-03 0.0000e+00 1.0000e+00
      -13  1    1    2    0    0 +3.2869474092e+01 -1.2198676796e+02 +4.6839627619e+01 1.3474099512e+02 1.0566000000e-01 0.0000e+00 -1.0000e+00
       13  1    1    2    0    0 -1.2165489116e+00 +2.5399415403e+01 +1.1465775521e+01 2.7894183380e+01 1.0566000000e-01 0.0000e+00 1.0000e+00
      -13  1    1    2    0    0 -1.5062711022e+02 +1.2608980186e+02 +1.2535294952e+02 2.3302475745e+02 1.0566000000e-01 0.0000e+00 1.0000e+00
       13  1    1    2    0    0 +1.1897418504e+02 -2.9502449296e+01 +1.3007220376e+01 1.2326577046e+02 1.0566000000e-01 0.0000e+00 -1.0000e+00
<mgrwt>
<rscale>  0 0.48021510E+03</rscale>
<asrwt>0</asrwt>
<pdfrwt beam="1">  1        1 0.89448909E-01 0.48021510E+03</pdfrwt>
<pdfrwt beam="2">  1       -1 0.40282517E-01 0.48021510E+03</pdfrwt>
<totfact> 0.22179497E+02</totfact>
</mgrwt>
</event>
<event>
 6      1 +1.8175624e-03 2.16369300e+02 7.81860800e-03 1.13661900e-01
       -3 -1    0    0    0  501 -0.0000000000e+00 +0.0000000000e+00 +1.8097601304e+02 1.8097604123e+02 1.0100000000e-01 0.0000e+00 1.0000e+00
        3 -1    0    0  501    0 +0.0000000000e+00 -0.0000000000e+00 -6.4671002481e+01 6.4671081349e+01 1.0100000000e-01 0.0000e+00 -1.0000e+00
      -13  1    1    2    0    0 -2.5123350148e+01 +2.7336661882e+01 +5.4325164385e+01 6.5800535370e+01 1.0566000000e-01 0.0000e+00 1.0000e+00
       13  1    1    2    0    0 +2.8967718568e+01 -4.2705998004e+01 +7.7780156384e+01 9.3341817401e+01 1.0566000000e-01 0.0000e+00 1.0000e+00
      -13  1    1    2    0    0 -3.5936306992e+01 +2.5761772369e+01 +8.3761532650e+00 4.5002868613e+01 1.0566000000e-01 0.0000e+00 -1.0000e+00
       13  1    1    2    0    0 +3.2091938572e+01 -1.0392436248e+01 -2.4176463471e+01 4.1501901192e+01 1.0566000000e-01 0.0000e+00 -1.0000e+00
<mgrwt>
<rscale>  0 0.21636925E+03</rscale>
<asrwt>0</asrwt>
<pdfrwt beam="1">  1        3 0.16167764E-01 0.21636925E+03</pdfrwt>
<pdfrwt beam="2">  1       -3 0.45244016E-01 0.21636925E+03</pdfrwt>
<totfact> 0.39179199E+02</totfact>
</mgrwt>
</event>
<event>
 6      1 +1.8175624e-03 3.29791300e+02 7.81860800e-03 1.07122900e-01
        1 -1    0    0  501    0 +0.0000000000e+00 +0.0000000000e+00 +1.3207438024e+02 1.3207438033e+02 5.0400000000e-03 0.0000e+00 -1.0000e+00
       -1 -1    0    0    0  501 -0.0000000000e+00 -0.0000000000e+00 -2.0587318353e+02 2.0587318359e+02 5.0400000000e-03 0.0000e+00 1.0000e+00
      -13  1    1    2    0    0 +5.4123960056e+01 -1.5020955719e+01 -1.2696323845e+02 1.3883337943e+02 1.0566000000e-01 0.0000e+00 1.0000e+00
       13  1    1    2    0    0 -7.1777051586e+01 +1.7340719058e+01 +8.3093246006e+01 1.1116269324e+02 1.0566000000e-01 0.0000e+00 -1.0000e+00
      -13  1    1    2    0    0 +3.0617914840e+01 +2.7819002630e+01 +2.9876324340e+00 4.1476387597e+01 1.0566000000e-01 0.0000e+00 1.0000e+00
       13  1    1    2    0    0 -1.2964823310e+01 -3.0138765970e+01 -3.2916443284e+01 4.6475103660e+01 1.0566000000e-01 0.0000e+00 -1.0000e+00
<mgrwt>
<rscale>  0 0.32979129E+03</rscale>
<asrwt>0</asrwt>
<pdfrwt beam="1">  1        1 0.33018595E-01 0.32979129E+03</pdfrwt>
<pdfrwt beam="2">  1       -1 0.51468296E-01 0.32979129E+03</pdfrwt>
<totfact> 0.52315751E+02</totfact>
</mgrwt>
</event>
<event>
 6      1 +1.8175624e-03 4.04582000e+02 7.81860800e-03 1.04220500e-01
        2 -1    0    0  501    0 +0.0000000000e+00 +0.0000000000e+00 +8.0247438795e+02 8.0247438795e+02 2.5500000000e-03 0.0000e+00 1.0000e+00
       -2 -1    0    0    0  501 -0.0000000000e+00 -0.0000000000e+00 -5.0994333082e+01 5.0994333146e+01 2.5500000000e-03 0.0000e+00 -1.0000e+00
      -13  1    1    2    0    0 -5.9303313358e+01 +2.6301192088e+01 +1.1435063459e+02 1.3147134469e+02 1.0566000000e-01 0.0000e+00 1.0000e+00
       13  1    1    2    0    0 -5.0302552549e+01 -6.5877970054e+01 +3.5205529059e+02 3.6168106466e+02 1.0566000000e-01 0.0000e+00 1.0000e+00
      -13  1    1    2    0    0 -2.8164783327e+01 -4.2639684973e+01 +3.0825854947e+01 5.9679496074e+01 1.0566000000e-01 0.0000e+00 -1.0000e+00
       13  1    1    2    0    0 +1.3777064923e+02 +8.2216462938e+01 +2.5424827474e+02 3.0063681568e+02 1.0566000000e-01 0.0000e+00 -1.0000e+00
<mgrwt>
<rscale>  0 0.40458199E+03</rscale>
<asrwt>0</asrwt>
<pdfrwt beam="1">  1        2 0.20061859E+00 0.40458199E+03</pdfrwt>
<pdfrwt beam="2">  1       -2 0.12748584E-01 0.40458199E+03</pdfrwt>
<totfact> 0.77649928E+02</totfact>
</mgrwt>
</event>
<event>
 6      1 +1.8175624e-03 3.42335400e+02 7.81860800e-03 1.06580600e-01
       -2 -1    0    0    0  501 -0.0000000000e+00 +0.0000000000e+00 +1.1658094083e+02 1.1658094086e+02 2.5500000000e-03 0.0000e+00 1.0000e+00
        2 -1    0    0  501    0 +0.0000000000e+00 -0.0000000000e+00 -2.5131361871e+02 2.5131361873e+02 2.5500000000e-03 0.0000e+00 -1.0000e+00
      -13  1    1    2    0    0 -1.6297735117e+01 -4.6288395362e+01 -4.6671448384e+01 6.7723459550e+01 1.0566000000e-01 0.0000e+00 -1.0000e+00
       13  1    1    2    0    0 -1.3510766600e+01 +1.2028200821e+02 -7.2170506049e+01 1.4092159316e+02 1.0566000000e-01 0.0000e+00 -1.0000e+00
      -13  1    1    2    0    0 +1.5206134211e+01 -1.1397609698e+02 -1.9105956661e+01 1.1656254091e+02 1.0566000000e-01 0.0000e+00 1.0000e+00
       13  1    1    2    0    0 +1.4602367506e+01 +3.9982484134e+01 +3.2152332118e+00 4.2686965961e+01 1.0566000000e-01 0.0000e+00 1.0000e+00
<mgrwt>
<rscale>  0 0.34233538E+03</rscale>
<asrwt>0</asrwt>
<pdfrwt beam="1">  1        2 0.62828404E-01 0.34233538E+03</pdfrwt>
<pdfrwt beam="2">  1       -2 0.29145236E-01 0.34233538E+03</pdfrwt>
<totfact> 0.84389713E+02</totfact>
</mgrwt>
</event>
<event>
 6      1 +1.8175624e-03 3.60823200e+02 7.81860800e-03 1.05825800e-01
       -2 -1    0    0    0  501 -0.0000000000e+00 +0.0000000000e+00 +1.7987331501e+02 1.7987331503e+02 2.5500000000e-03 0.0000e+00 -1.0000e+00
        2 -1    0    0  501    0 +0.0000000000e+00 -0.0000000000e+00 -1.8095150548e+02 1.8095150550e+02 2.5500000000e-03 0.0000e+00 1.0000e+00
      -13  1    1    2    0    0 -7.7691164813e+01 +8.2277944095e+01 -5.4948638732e+01 1.2579722269e+02 1.0566000000e-01 0.0000e+00 -1.0000e+00
       13  1    1    2    0    0 +4.8022644384e+01 -3.2948004678e+01 -2.6255860081e+01 6.3883696970e+01 1.0566000000e-01 0.0000e+00 -1.0000e+00
      -13  1    1    2    0    0 +6.9288758107e+01 +1.9348211263e+01 +3.7725265169e+01 8.1231102881e+01 1.0566000000e-01 0.0000e+00 1.0000e+00
       13  1    1    2    0    0 -3.9620237678e+01 -6.8678150681e+01 +4.2401043174e+01 8.9912797982e+01 1.0566000000e-01 0.0000e+00 1.0000e+00
<mgrwt>
<rscale>  0 0.36082321E+03</rscale>
<asrwt>0</asrwt>
<pdfrwt beam="1">  1        2 0.45237876E-01 0.36082321E+03</pdfrwt>
<pdfrwt beam="2">  1       -2 0.44968329E-01 0.36082321E+03</pdfrwt>
<totfact> 0.53198959E+02</totfact>
</mgrwt>
</event>
<event>
 6      1 +1.8175624e-03 5.96618600e+02 7.81860800e-03 9.91244600e-02
       -1 -1    0    0    0  501 -0.0000000000e+00 +0.0000000000e+00 +1.0939399919e+02 1.0939399931e+02 5.0400000000e-03 0.0000e+00 1.0000e+00
        1 -1    0    0  501    0 +0.0000000000e+00 -0.0000000000e+00 -8.1346726915e+02 8.1346726916e+02 5.0400000000e-03 0.0000e+00 -1.0000e+00
      -13  1    1    2    0    0 +5.5059698352e+00 -1.2403912146e+02 +1.9733792637e+01 1.2571974026e+02 1.0566000000e-01 0.0000e+00 1.0000e+00
       13  1    1    2    0    0 +2.5952909043e+01 +1.9754961429e+02 -5.5018746531e+02 5.8515439137e+02 1.0566000000e-01 0.0000e+00 -1.0000e+00
      -13  1    1    2    0    0 -2.3910819936e+00 -5.8509850910e+01 -1.6911692296e+02 1.7896833441e+02 1.0566000000e-01 0.0000e+00 1.0000e+00
       13  1    1    2    0    0 -2.9067796884e+01 -1.5000641918e+01 -4.5026743265e+00 3.3018802428e+01 1.0566000000e-01 0.0000e+00 -1.0000e+00
<mgrwt>
<rscale>  0 0.59661860E+03</rscale>
<asrwt>0</asrwt>
<pdfrwt beam="1">  1        1 0.20336680E+00 0.59661860E+03</pdfrwt>
<pdfrwt beam="2">  1       -1 0.27348502E-01 0.59661860E+03</pdfrwt>
<totfact> 0.10838234E+02</totfact>
</mgrwt>
</event>
<event>
 6      1 +1.8175624e-03 8.72926600e+02 7.81860800e-03 9.46007200e-02
        1 -1    0    0  501    0 +0.0000000000e+00 +0.0000000000e+00 +7.4072871830e+02 7.4072871832e+02 5.0400000000e-03 0.0000e+00 -1.0000e+00
       -1 -1    0    0    0  501 -0.0000000000e+00 -0.0000000000e+00 -2.5717947706e+02 2.5717947711e+02 5.0400000000e-03 0.0000e+00 1.0000e+00
      -13  1    1    2    0    0 -1.1212393491e+02 -8.7149261617e+01 +1.2459228341e+02 1.8891802145e+02 1.0566000000e-01 0.0000e+00 -1.0000e+00
       13  1    1    2    0    0 -6.3965631117e+01 -1.9046238495e+02 +1.7348191117e+02 2.6544963122e+02 1.0566000000e-01 0.0000e+00 1.0000e+00
      -13  1    1    2    0    0 -4.0914090179e+01 +2.7768670482e+02 +4.3035474410e+01 2.8396466687e+02 1.0566000000e-01 0.0000e+00 1.0000e+00
       13  1    1    2    0    0 +2.1700365620e+02 -7.5058248387e-02 +1.4243957225e+02 2.5957587589e+02 1.0566000000e-01 0.0000e+00 -1.0000e+00
<mgrwt>
<rscale>  0 0.87292663E+03</rscale>
<asrwt>0</asrwt>
<pdfrwt beam="1">  1        1 0.18518218E+00 0.87292663E+03</pdfrwt>
<pdfrwt beam="2">  1       -1 0.64294870E-01 0.87292663E+03</pdfrwt>
<totfact> 0.26461864E+01</totfact>
</mgrwt>
</event>
<event>
 6      1 +1.8175624e-03 1.78412900e+02 7.81860800e-03 1.16934800e-01
       -4 -1    0    0    0  501 -0.0000000000e+00 +0.0000000000e+00 +1.5487678181e+02 1.5488198877e+02 1.2700000000e+00 0.0000e+00 1.0000e+00
        4 -1    0    0  501    0 +0.0000000000e+00 -0.0000000000e+00 -5.1367500849e+01 5.1383198066e+01 1.2700000000e+00 0.0000e+00 -1.0000e+00
      -13  1    1    2    0    0 -1.3145386214e+01 +3.6177442467e+01 +4.1831611290e+01 5.6846313770e+01 1.0566000000e-01 0.0000e+00 -1.0000e+00
       13  1    1    2    0    0 -4.0483540442e+01 -6.3610491643e-01 +2.2446476126e+01 4.6294461123e+01 1.0566000000e-01 0.0000e+00 -1.0000e+00
      -13  1    1    2    0    0 -7.8910678558e+00 -8.9162225245e+00 -1.3379019760e+01 1.7910257111e+01 1.0566000000e-01 0.0000e+00 1.0000e+00
       13  1    1    2    0    0 +6.1519994512e+01 -2.6625115026e+01 +5.2610213311e+01 8.5214154831e+01 1.0566000000e-01 0.0000e+00 1.0000e+00
<mgrwt>
<rscale>  0 0.17841288E+03</rscale>
<asrwt>0</asrwt>
<pdfrwt beam="1">  1        4 0.12844488E-01 0.17841288E+03</pdfrwt>
<pdfrwt beam="2">  1       -4 0.38721808E-01 0.17841288E+03</pdfrwt>
<totfact> 0.55914732E+02</totfact>
</mgrwt>
</event>
<event>
 6      1 +1.8175624e-03 4.68303200e+02 7.81860800e-03 1.02240000e-01
        2 -1    0    0  501    0 +0.0000000000e+00 +0.0000000000e+00 +4.4607263694e+02 4.4607263695e+02 2.5500000000e-03 0.0000e+00 -1.0000e+00
       -2 -1    0    0    0  501 -0.0000000000e+00 -0.0000000000e+00 -1.2291041650e+02 1.2291041653e+02 2.5500000000e-03 0.0000e+00 1.0000e+00
      -13  1    1    2    0    0 -7.8243874315e+01 +3.2006507586e+00 +1.0660318458e+02 1.3227470718e+02 1.0566000000e-01 0.0000e+00 1.0000e+00
       13  1    1    2    0    0 +1.3124629586e+01 +9.6542072452e+01 -3.8539896743e+01 1.0477577230e+02 1.0566000000e-01 0.0000e+00 1.0000e+00
      -13  1    1    2    0    0 -4.2714062867e+01 +4.3763168346e+00 +9.1446680817e+00 4.3900790813e+01 1.0566000000e-01 0.0000e+00 -1.0000e+00
       13  1    1    2    0    0 +1.0783330760e+02 -1.0411904004e+02 +2.4595426452e+02 2.8803178319e+02 1.0566000000e-01 0.0000e+00 -1.0000e+00
<mgrwt>
<rscale>  0 0.46830321E+03</rscale>
<asrwt>0</asrwt>
<pdfrwt beam="1">  1        2 0.11151816E+00 0.46830321E+03</pdfrwt>
<pdfrwt beam="2">  1       -2 0.30727605E-01 0.46830321E+03</pdfrwt>
<totfact> 0.39103727E+02</totfact>
</mgrwt>
</event>
<event>
 6      1 +1.8175624e-03 4.02580700e+02 7.81860800e-03 1.04289000e-01
        1 -1    0    0  501    0 +0.0000000000e+00 +0.0000000000e+00 +6.2372809693e+01 6.2372809897e+01 5.0400000000e-03 0.0000e+00 1.0000e+00
       -1 -1    0    0    0  501 -0.0000000000e+00 -0.0000000000e+00 -6.4960673001e+02 6.4960673003e+02 5.0400000000e-03 0.0000e+00 -1.0000e+00
      -13  1    1    2    0    0 -5.0173028720e+01 -2.6896958734e+01 -1.5675204438e+02 1.6676928309e+02 1.0566000000e-01 0.0000e+00 -1.0000e+00
       13  1    1    2    0    0 +1.5866425971e+01 -2.7504770142e+01 +5.2763049763e+00 3.2188606865e+01 1.0566000000e-01 0.0000e+00 1.0000e+00
      -13  1    1    2    0    0 -3.8016738847e+01 -9.4709641826e+01 -1.3037326113e+02 1.6556686586e+02 1.0566000000e-01 0.0000e+00 -1.0000e+00
       13  1    1    2    0    0 +7.2323341596e+01 +1.4911137070e+02 -3.0538491978e+02 3.4745478411e+02 1.0566000000e-01 0.0000e+00 1.0000e+00
<mgrwt>
<rscale>  0 0.40258066E+03</rscale>
<asrwt>0</asrwt>
<pdfrwt beam="1">  1        1 0.15593204E-01 0.40258066E+03</pdfrwt>
<pdfrwt beam="2">  1       -1 0.16240166E+00 0.40258066E+03</pdfrwt>
<totfact> 0.10699210E+02</totfact>
</mgrwt>
</event>
<event>
 6      1 +1.8175624e-03 3.78195200e+02 7.81860800e-03 1.05160300e-01
        2 -1    0    0  501    0 +0.0000000000e+00 +0.0000000000e+00 +7.3940209337e+01 7.3940209381e+01 2.5500000000e-03 0.0000e+00 -1.0000e+00
       -2 -1    0    0    0  501 -0.0000000000e+00 -0.0000000000e+00 -4.8360557718e+02 4.8360557719e+02 2.5500000000e-03 0.0000e+00 1.0000e+00
      -13  1    1    2    0    0 +5.7391886629e+00 -6.1059775787e+01 -1.5142759074e+01 6.3170790893e+01 1.0566000000e-01 0.0000e+00 1.0000e+00
       13  1    1    2    0    0 +5.6313165667e+01 +1.9004040734e+01 -3.0731365451e+01 6.6908550860e+01 1.0566000000e-01 0.0000e+00 -1.0000e+00
      -13  1    1    2    0    0 -1.0346340019e+02 +8.4505799099e+01 -3.3676799238e+02 3.6229628361e+02 1.0566000000e-01 0.0000e+00 1.0000e+00
       13  1    1    2    0    0 +4.1411045857e+01 -4.2450064047e+01 -2.7023250935e+01 6.5170161207e+01 1.0566000000e-01 0.0000e+00 -1.0000e+00
<mgrwt>
<rscale>  0 0.37819518E+03</rscale>
<asrwt>0</asrwt>
<pdfrwt beam="1">  1        2 0.18485054E-01 0.37819518E+03</pdfrwt>
<pdfrwt beam="2">  1       -2 0.12090139E+00 0.37819518E+03</pdfrwt>
<totfact> 0.16593616E+02</totfact>
</mgrwt>
</event>
<event>
 6      1 +1.8175624e-03 4.96971000e+02 7.81860800e-03 1.01457300e-01
        2 -1    0    0  501    0 +0.0000000000e+00 +0.0000000000e+00 +1.2243304367e+03 1.2243304367e+03 2.5500000000e-03 0.0000e+00 -1.0000e+00
       -2 -1    0    0    0  501 -0.0000000000e+00 -0.0000000000e+00 -5.0431673993e+01 5.0431674058e+01 2.5500000000e-03 0.0000e+00 1.0000e+00
      -13  1    1    2    0    0 +4.1191674342e+01 -2.5626311283e+00 +1.3625392856e+02 1.4236736046e+02 1.0566000000e-01 0.0000e+00 -1.0000e+00
       13  1    1    2    0    0 -4.6011029444e+01 -3.4485901997e+01 +5.5119534534e+01 7.9652159533e+01 1.0566000000e-01 0.0000e+00 1.0000e+00
      -13  1    1    2    0    0 -9.4694048703e+01 +1.8023360068e+02 +5.1911920475e+02 5.5761624221e+02 1.0566000000e-01 0.0000e+00 1.0000e+00
       13  1    1    2    0    0 +9.9513403805e+01 -1.4318506756e+02 +4.6340609484e+02 4.9512634853e+02 1.0566000000e-01 0.0000e+00 -1.0000e+00
<mgrwt>
<rscale>  0 0.49697096E+03</rscale>
<asrwt>0</asrwt>
<pdfrwt beam="1">  1        2 0.30608259E+00 0.49697096E+03</pdfrwt>
<pdfrwt beam="2">  1       -2 0.12607919E-01 0.49697096E+03</pdfrwt>
<totfact> 0.33270576E+02</totfact>
</mgrwt>
</event>
<event>
 6      1 +1.8175624e-03 4.30125400e+02 7.81860800e-03 1.03382000e-01
       -1 -1    0    0    0  501 -0.0000000000e+00 +0.0000000000e+00 +1.9176783037e+02 1.9176783044e+02 5.0400000000e-03 0.0000e+00 1.0000e+00
        1 -1    0    0  501    0 +0.0000000000e+00 -0.0000000000e+00 -2.4118727632e+02 2.4118727637e+02 5.0400000000e-03 0.0000e+00 -1.0000e+00
      -13  1    1    2    0    0 +3.0648838413e+01 +5.1933301727e+01 +5.9350716141e+01 8.4610506409e+01 1.0566000000e-01 0.0000e+00 1.0000e+00
       13  1    1    2    0    0 +4.6629103061e+01 -1.3719781677e+01 +4.3770527295e+01 6.5409295098e+01 1.0566000000e-01 0.0000e+00 1.0000e+00
      -13  1    1    2    0    0 -3.0750156617e+00 +6.9363417479e+01 +1.4416675915e+01 7.0912559636e+01 1.0566000000e-01 0.0000e+00 -1.0000e+00
       13  1    1    2    0    0 -7.4202925813e+01 -1.0757693753e+02 -1.6695736530e+02 2.1202274567e+02 1.0566000000e-01 0.0000e+00 -1.0000e+00
<mgrwt>
<rscale>  0 0.43012538E+03</rscale>
<asrwt>0</asrwt>
<pdfrwt beam="1">  1        1 0.60296819E-01 0.43012538E+03</pdfrwt>
<pdfrwt beam="2">  1       -1 0.47941958E-01 0.43012538E+03</pdfrwt>
<totfact> 0.27529114E+02</totfact>
</mgrwt>
</event>
<event>
 6      1 +1.8175624e-03 6.15520600e+02 7.81860800e-03 9.87371900e-02
       -1 -1    0    0    0  501 -0.0000000000e+00 +0.0000000000e+00 +3.1598523185e+02 3.1598523189e+02 5.0400000000e-03 0.0000e+00 1.0000e+00
        1 -1    0    0  501    0 +0.0000000000e+00 -0.0000000000e+00 -2.9974948615e+02 2.9974948619e+02 5.0400000000e-03 0.0000e+00 -1.0000e+00
      -13  1    1    2    0    0 -2.0568920853e+02 +8.5553699078e+01 +1.1884954977e+02 2.5249299510e+02 1.0566000000e-01 0.0000e+00 1.0000e+00
       13  1    1    2    0    0 +8.0796039634e+01 -1.5666946731e+01 +2.5773734375e+00 8.2341406706e+01 1.0566000000e-01 0.0000e+00 1.0000e+00
      -13  1    1    2    0    0 +6.1895921645e+01 -1.0195070131e+01 -1.6431964552e+02 1.7588633159e+02 1.0566000000e-01 0.0000e+00 -1.0000e+00
       13  1    1    2    0    0 +6.2997247246e+01 -5.9691682216e+01 +5.9128468020e+01 1.0501398469e+02 1.0566000000e-01 0.0000e+00 -1.0000e+00
<mgrwt>
<rscale>  0 0.61552063E+03</rscale>
<asrwt>0</asrwt>
<pdfrwt beam="1">  1        1 0.74937372E-01 0.61552063E+03</pdfrwt>
<pdfrwt beam="2">  1       -1 0.78996308E-01 0.61552063E+03</pdfrwt>
<totfact> 0.75870695E+01</totfact>
</mgrwt>
</event>
<event>
 6      1 +1.8175624e-03 3.22919200e+02 7.81860800e-03 1.07431400e-01
       -1 -1    0    0    0  501 -0.0000000000e+00 +0.0000000000e+00 +3.9516125274e+01 3.9516125595e+01 5.0400000000e-03 0.0000e+00 1.0000e+00
        1 -1    0    0  501    0 +0.0000000000e+00 -0.0000000000e+00 -6.5971032540e+02 6.5971032542e+02 5.0400000000e-03 0.0000e+00 -1.0000e+00
      -13  1    1    2    0    0 -5.0722915353e+01 +5.4576231344e+01 -3.3110020878e+02 3.3937993251e+02 1.0566000000e-01 0.0000e+00 1.0000e+00
       13  1    1    2    0    0 -3.3512669495e+01 -4.2828738625e+01 -1.1181498038e+02 1.2433825184e+02 1.0566000000e-01 0.0000e+00 -1.0000e+00
      -13  1    1    2    0    0 +6.0146844437e+01 +9.1439488391e+00 -5.8270495271e+00 6.1116449228e+01 1.0566000000e-01 0.0000e+00 1.0000e+00
       13  1    1    2    0    0 +2.4088740412e+01 -2.0891441558e+01 -1.7145196144e+02 1.7439181744e+02 1.0566000000e-01 0.0000e+00 -1.0000e+00
<mgrwt>
<rscale>  0 0.32291916E+03</rscale>
<asrwt>0</asrwt>
<pdfrwt beam="1">  1        1 0.16492755E+00 0.32291916E+03</pdfrwt>
<pdfrwt beam="2">  1       -1 0.98790335E-02 0.32291916E+03</pdfrwt>
<totfact> 0.87776845E+02</totfact>
</mgrwt>
</event>
<event>
 6      1 +1.8175624e-03 2.80145200e+02 7.81860800e-03 1.09561000e-01
        2 -1    0    0  501    0 +0.0000000000e+00 +0.0000000000e+00 +9.7102981057e+01 9.7102981090e+01 2.5500000000e-03 0.0000e+00 1.0000e+00
       -2 -1    0    0    0  501 -0.0000000000e+00 -0.0000000000e+00 -2.0205695607e+02 2.0205695609e+02 2.5500000000e-03 0.0000e+00 -1.0000e+00
      -13  1    1    2    0    0 +9.3065782899e+01 -1.0385925232e+01 -7.3314261625e+01 1.1892896834e+02 1.0566000000e-01 0.0000e+00 -1.0000e+00
       13  1    1    2    0    0 -5.6390199168e+01 +1.8651001769e+01 +2.5955305729e+01 6.4818234230e+01 1.0566000000e-01 0.0000e+00 1.0000e+00
      -13  1    1    2    0    0 -2.7986030033e+01 -1.8501758398e+01 -8.1421751568e+01 8.8062737485e+01 1.0566000000e-01 0.0000e+00 -1.0000e+00
       13  1    1    2    0    0 -8.6895536986e+00 +1.0236681860e+01 +2.3826732452e+01 2.7349997118e+01 1.0566000000e-01 0.0000e+00 1.0000e+00
<mgrwt>
<rscale>  0 0.28014520E+03</rscale>
<asrwt>0</asrwt>
<pdfrwt beam="1">  1        2 0.24275746E-01 0.28014520E+03</pdfrwt>
<pdfrwt beam="2">  1       -2 0.50514238E-01 0.28014520E+03</pdfrwt>
<totfact> 0.83813927E+02</totfact>
</mgrwt>
</event>
<event>
 6      1 +1.8175624e-03 2.62915300e+02 7.81860800e-03 1.10540400e-01
       -1 -1    0    0    0  501 -0.0000000000e+00 +0.0000000000e+00 +5.6475444985e+01 5.6475445210e+01 5.0400000000e-03 0.0000e+00 1.0000e+00
        1 -1    0    0  501    0 +0.0000000000e+00 -0.0000000000e+00 -3.0599346371e+02 3.0599346375e+02 5.0400000000e-03 0.0000e+00 -1.0000e+00
      -13  1    1    2    0    0 -3.1424375337e+01 -1.3198560019e+01 -4.8115825056e+01 5.8964710944e+01 1.0566000000e-01 0.0000e+00 -1.0000e+00
       13  1    1    2    0    0 +4.9636443725e+01 +3.0401094963e+01 -2.8122000234e+00 5.8274546362e+01 1.0566000000e-01 0.0000e+00 1.0000e+00
      -13  1    1    2    0    0 +3.8807920547e+01 -3.8340935159e+01 -2.2636218392e+01 5.9063453618e+01 1.0566000000e-01 0.0000e+00 1.0000e+00
       13  1    1    2    0    0 -5.7019988935e+01 +2.1138400215e+01 -1.7595377525e+02 1.8616619804e+02 1.0566000000e-01 0.0000e+00 -1.0000e+00
<mgrwt>
<rscale>  0 0.26291533E+03</rscale>
<asrwt>0</asrwt>
<pdfrwt beam="1">  1        1 0.76498361E-01 0.26291533E+03</pdfrwt>
<pdfrwt beam="2">  1       -1 0.14118862E-01 0.26291533E+03</pdfrwt>
<totfact> 0.16087060E+03</totfact>
</mgrwt>
</event>
<event>
 7      1 +1.8175624e-03 1.27356300e+02 7.81860800e-03 1.23143200e-01
        2 -1    0    0  501    0 +0.0000000000e+00 +0.0000000000e+00 +6.1420017580e+01 6.1420017633e+01 2.5500000000e-03 0.0000e+00 1.0000e+00
       -2 -1    0    0    0  501 -0.0000000000e+00 -0.0000000000e+00 -6.6019328620e+01 6.6019328669e+01 2.5500000000e-03 0.0000e+00 -1.0000e+00
       23  2    1    2    0    0 -7.1054273576e-15 -7.1054273576e-15 -4.5993110391e+00 1.2743934630e+02 1.2735632424e+02 0.0000e+00 0.0000e+00
      -13  1    3    3    0    0 +1.4449899521e+00 +3.1932159758e+01 +2.0328442320e+01 3.7881493555e+01 1.0566000000e-01 0.0000e+00 1.0000e+00
       13  1    3    3    0    0 +1.7913525033e+01 +2.4126243047e+00 -1.2661628694e+00 1.8119863896e+01 1.0566000000e-01 0.0000e+00 1.0000e+00
      -13  1    3    3    0    0 -2.8976048975e+01 -4.4012669886e+01 -2.3751771978e+01 5.7800383743e+01 1.0566000000e-01 0.0000e+00 -1.0000e+00
       13  1    3    3    0    0 +9.6175339896e+00 +9.6678858237e+00 +9.0181488378e-02 1.3637605108e+01 1.0566000000e-01 0.0000e+00 -1.0000e+00
<mgrwt>
<rscale>  0 0.12735632E+03</rscale>
<asrwt>0</asrwt>
<pdfrwt beam="1">  1        2 0.15355004E-01 0.12735632E+03</pdfrwt>
<pdfrwt beam="2">  1       -2 0.16504832E-01 0.12735632E+03</pdfrwt>
<totfact> 0.10321077E+04</totfact>
</mgrwt>
</event>
<event>
 6      1 +1.8175624e-03 8.21082800e+02 7.81860800e-03 9.52999200e-02
       -2 -1    0    0    0  501 -0.0000000000e+00 +0.0000000000e+00 +1.2381231317e+02 1.2381231319e+02 2.5500000000e-03 0.0000e+00 1.0000e+00
        2 -1    0    0  501    0 +0.0000000000e+00 -0.0000000000e+00 -1.3612882262e+03 1.3612882262e+03 2.5500000000e-03 0.0000e+00 -1.0000e+00
      -13  1    1    2    0    0 +1.3677788930e+01 +3.7662103724e+01 -1.5646195724e+02 1.6151121074e+02 1.0566000000e-01 0.0000e+00 -1.0000e+00
       13  1    1    2    0    0 -4.8025282754e+01 +3.9355265139e+01 -3.8655028204e+01 7.3140187635e+01 1.0566000000e-01 0.0000e+00 1.0000e+00
      -13  1    1    2    0    0 +2.0995394392e+02 -6.9924950700e+01 -3.0433274806e+01 2.2337491506e+02 1.0566000000e-01 0.0000e+00 1.0000e+00
       13  1    1    2    0    0 -1.7560645010e+02 -7.0924181627e+00 -1.0119256528e+03 1.0270742260e+03 1.0566000000e-01 0.0000e+00 -1.0000e+00
<mgrwt>
<rscale>  0 0.82108281E+03</rscale>
<asrwt>0</asrwt>
<pdfrwt beam="1">  1        2 0.34032201E+00 0.82108281E+03</pdfrwt>
<pdfrwt beam="2">  1       -2 0.30953082E-01 0.82108281E+03</pdfrwt>
<totfact> 0.50392843E+01</totfact>
</mgrwt>
</event>
<event>
 6      1 +1.8175624e-03 3.33555600e+02 7.81860800e-03 1.06957400e-01
        2 -1    0    0  501    0 +0.0000000000e+00 +0.0000000000e+00 +5.9484184578e+02 5.9484184579e+02 2.5500000000e-03 0.0000e+00 1.0000e+00
       -2 -1    0    0    0  501 -0.0000000000e+00 -0.0000000000e+00 -4.6760063777e+01 4.6760063847e+01 2.5500000000e-03 0.0000e+00 -1.0000e+00
      -13  1    1    2    0    0 -8.9073093308e+01 -1.1291190479e+01 +4.7409018059e+01 1.0153390119e+02 1.0566000000e-01 0.0000e+00 -1.0000e+00
       13  1    1    2    0    0 +7.5518485632e+01 +4.5130640111e+01 +2.8884058468e+02 3.0194156863e+02 1.0566000000e-01 0.0000e+00 1.0000e+00
      -13  1    1    2    0    0 -4.3526467064e+01 -3.4289292607e+00 +9.5958172919e+01 1.0542434731e+02 1.0566000000e-01 0.0000e+00 -1.0000e+00
       13  1    1    2    0    0 +5.7081074740e+01 -3.0410520371e+01 +1.1587400635e+02 1.3270209250e+02 1.0566000000e-01 0.0000e+00 1.0000e+00
<mgrwt>
<rscale>  0 0.33355565E+03</rscale>
<asrwt>0</asrwt>
<pdfrwt beam="1">  1        2 0.14871046E+00 0.33355565E+03</pdfrwt>
<pdfrwt beam="2">  1       -2 0.11690016E-01 0.33355565E+03</pdfrwt>
<totfact> 0.14206588E+03</totfact>
</mgrwt>
</event>
<event>
 7      1 +1.8175624e-03 9.37374700e+01 7.81860800e-03 1.29404500e-01
        1 -1    0    0  501    0 +0.0000000000e+00 +0.0000000000e+00 +2.9898557782e+01 2.9898558206e+01 5.0400000000e-03 0.0000e+00 -1.0000e+00
       -1 -1    0    0    0  501 -0.0000000000e+00 -0.0000000000e+00 -7.3471048841e+01 7.3471049014e+01 5.0400000000e-03 0.0000e+00 1.0000e+00
       23  2    1    2    0    0 +0.0000000000e+00 +0.0000000000e+00 -4.3572491059e+01 1.0336960722e+02 9.3737472335e+01 0.0000e+00 0.0000e+00
      -13  1    3    3    0    0 +3.0821393420e+01 +8.0479037385e+00 -1.5502792090e+01 3.5427034501e+01 1.0566000000e-01 0.0000e+00 -1.0000e+00
       13  1    3    3    0    0 -3.3405161118e+01 -8.5161080681e+00 -1.5230950451e+01 3.7688485000e+01 1.0566000000e-01 0.0000e+00 1.0000e+00
      -13  1    3    3    0    0 +9.3405942186e+00 +1.0555600527e+01 -2.5177147841e+00 1.4318430592e+01 1.0566000000e-01 0.0000e+00 -1.0000e+00
       13  1    3    3    0    0 -6.7568265207e+00 -1.0087396198e+01 -1.0321033734e+01 1.5935657127e+01 1.0566000000e-01 0.0000e+00 1.0000e+00
<mgrwt>
<rscale>  0 0.93737472E+02</rscale>
<asrwt>0</asrwt>
<pdfrwt beam="1">  1        1 0.74746397E-02 0.93737472E+02</pdfrwt>
<pdfrwt beam="2">  1       -1 0.18367762E-01 0.93737472E+02</pdfrwt>
<totfact> 0.19649172E+04</totfact>
</mgrwt>
</event>
<event>
 6      1 +1.8175624e-03 1.68126900e+02 7.81860800e-03 1.17981500e-01
       -1 -1    0    0    0  501 -0.0000000000e+00 +0.0000000000e+00 +2.1560398549e+01 2.1560399138e+01 5.0400000000e-03 0.0000e+00 1.0000e+00
        1 -1    0    0  501    0 +0.0000000000e+00 -0.0000000000e+00 -3.2776146050e+02 3.2776146054e+02 5.0400000000e-03 0.0000e+00 -1.0000e+00
      -13  1    1    2    0    0 -1.0327728679e+01 -8.9997416217e+00 -7.0290134481e-01 1.3717235992e+01 1.0566000000e-01 0.0000e+00 1.0000e+00
       13  1    1    2    0    0 +1.7788513237e+01 -1.6604845819e+01 -2.7303916334e+01 3.6574131829e+01 1.0566000000e-01 0.0000e+00 -1.0000e+00
      -13  1    1    2    0    0 +4.2298477296e+01 +1.1431666584e+01 -5.7159986795e+01 7.2021659498e+01 1.0566000000e-01 0.0000e+00 1.0000e+00
       13  1    1    2    0    0 -4.9759261854e+01 +1.4172920857e+01 -2.2103425748e+02 2.2700883236e+02 1.0566000000e-01 0.0000e+00 -1.0000e+00
<mgrwt>
<rscale>  0 0.16812695E+03</rscale>
<asrwt>0</asrwt>
<pdfrwt beam="1">  1        1 0.81940349E-01 0.16812695E+03</pdfrwt>
<pdfrwt beam="2">  1       -1 0.53901008E-02 0.16812695E+03</pdfrwt>
<totfact> 0.63360104E+03</totfact>
</mgrwt>
</event>
<event>
 6      1 +1.8175624e-03 1.98252500e+02 7.81860800e-03 1.15122200e-01
       -1 -1    0    0    0  501 -0.0000000000e+00 +0.0000000000e+00 +4.7129637308e+01 4.7129637578e+01 5.0400000000e-03 0.0000e+00 1.0000e+00
        1 -1    0    0  501    0 +0.0000000000e+00 -0.0000000000e+00 -2.0848905949e+02 2.0848905955e+02 5.0400000000e-03 0.0000e+00 -1.0000e+00
      -13  1    1    2    0    0 +1.3460111481e+01 -5.6709353189e+00 +1.1026595835e+01 1.8301122594e+01 1.0566000000e-01 0.0000e+00 1.0000e+00
       13  1    1    2    0    0 +5.0361277537e+01 -2.4464137803e+01 -9.7227509586e+01 1.1219604315e+02 1.0566000000e-01 0.0000e+00 -1.0000e+00
      -13  1    1    2    0    0 -3.6017188234e+01 -1.3516438043e+01 -6.3008716783e+00 3.8982612709e+01 1.0566000000e-01 0.0000e+00 1.0000e+00
       13  1    1    2    0    0 -2.7804200783e+01 +4.3651511165e+01 -6.8857636753e+01 8.6138918681e+01 1.0566000000e-01 0.0000e+00 -1.0000e+00
<mgrwt>
<rscale>  0 0.19825250E+03</rscale>
<asrwt>0</asrwt>
<pdfrwt beam="1">  1        1 0.52122263E-01 0.19825250E+03</pdfrwt>
<pdfrwt beam="2">  1       -1 0.11782410E-01 0.19825250E+03</pdfrwt>
<totfact> 0.34792755E+03</totfact>
</mgrwt>
</event>
<event>
 6      1 +1.8175624e-03 2.32108800e+02 7.81860800e-03 1.12516400e-01
        1 -1    0    0  501    0 +0.0000000000e+00 +0.0000000000e+00 +4.7308182223e+02 4.7308182225e+02 5.0400000000e-03 0.0000e+00 -1.0000e+00
       -1 -1    0    0    0  501 -0.0000000000e+00 -0.0000000000e+00 -2.8469977480e+01 2.8469977926e+01 5.0400000000e-03 0.0000e+00 1.0000e+00
      -13  1    1    2    0    0 +2.7285955706e+01 -9.4983743933e+00 +1.1087876811e+02 1.1458121520e+02 1.0566000000e-01 0.0000e+00 -1.0000e+00
       13  1    1    2    0    0 -2.1257444723e+01 +7.1449892391e+01 +5.5748028370e+01 9.3085014422e+01 1.0566000000e-01 0.0000e+00 1.0000e+00
      -13  1    1    2    0    0 +1.4246180728e+01 -2.5615289394e+01 +2.8251951599e+01 4.0709711977e+01 1.0566000000e-01 0.0000e+00 1.0000e+00
       13  1    1    2    0    0 -2.0274691711e+01 -3.6336228604e+01 +2.4973309667e+02 2.5317585858e+02 1.0566000000e-01 0.0000e+00 -1.0000e+00
<mgrwt>
<rscale>  0 0.23210884E+03</rscale>
<asrwt>0</asrwt>
<pdfrwt beam="1">  1        1 0.11827045E+00 0.23210884E+03</pdfrwt>
<pdfrwt beam="2">  1       -1 0.71174947E-02 0.23210884E+03</pdfrwt>
<totfact> 0.25125723E+03</totfact>
</mgrwt>
</event>
<event>
 6      1 +1.8175624e-03 1.81504400e+02 7.81860800e-03 1.16635500e-01
       -1 -1    0    0    0  501 -0.0000000000e+00 +0.0000000000e+00 +1.6994829795e+02 1.6994829802e+02 5.0400000000e-03 0.0000e+00 1.0000e+00
        1 -1    0    0  501    0 +0.0000000000e+00 -0.0000000000e+00 -4.8461576573e+01 4.8461576835e+01 5.0400000000e-03 0.0000e+00 -1.0000e+00
      -13  1    1    2    0    0 +2.5075348093e+00 -2.7639589449e+01 +9.8925051366e+01 1.0274439930e+02 1.0566000000e-01 0.0000e+00 1.0000e+00
       13  1    1    2    0    0 -4.7401124827e+01 +2.7916414186e+01 +1.1215794022e+01 5.6142657716e+01 1.0566000000e-01 0.0000e+00 -1.0000e+00
      -13  1    1    2    0    0 +5.7626437407e+00 +1.4323564412e+01 +8.5838931516e+00 1.7665416667e+01 1.0566000000e-01 0.0000e+00 1.0000e+00
       13  1    1    2    0    0 +3.9130946276e+01 -1.4600389149e+01 +2.7619828351e+00 4.1857401174e+01 1.0566000000e-01 0.0000e+00 -1.0000e+00
<mgrwt>
<rscale>  0 0.18150441E+03</rscale>
<asrwt>0</asrwt>
<pdfrwt beam="1">  1        1 0.12115394E-01 0.18150441E+03</pdfrwt>
<pdfrwt beam="2">  1       -1 0.42487074E-01 0.18150441E+03</pdfrwt>
<totfact> 0.26889929E+03</totfact>
</mgrwt>
</event>
<event>
 6      1 +1.8175624e-03 9.50153700e+02 7.81860800e-03 9.36497100e-02
       -2 -1    0    0    0  501 -0.0000000000e+00 +0.0000000000e+00 +2.4387151631e+02 2.4387151632e+02 2.5500000000e-03 0.0000e+00 -1.0000e+00
        2 -1    0    0  501    0 +0.0000000000e+00 -0.0000000000e+00 -9.2547922829e+02 9.2547922829e+02 2.5500000000e-03 0.0000e+00 1.0000e+00
      -13  1    1    2    0    0 -7.8641478450e+01 -1.9082828093e+02 -1.1434418740e+02 2.3595448564e+02 1.0566000000e-01 0.0000e+00 -1.0000e+00
       13  1    1    2    0    0 +1.3231557885e+02 +6.9335434251e+00 -6.7786815124e+02 6.9069582890e+02 1.0566000000e-01 0.0000e+00 1.0000e+00
      -13  1    1    2    0    0 -5.1395163037e+01 +1.2232188241e+02 +2.1566192380e+01 1.3442178959e+02 1.0566000000e-01 0.0000e+00 1.0000e+00
       13  1    1    2    0    0 -2.2789373639e+00 +6.1572855101e+01 +8.9038434286e+01 1.0827864048e+02 1.0566000000e-01 0.0000e+00 -1.0000e+00
<mgrwt>
<rscale>  0 0.95015372E+03</rscale>
<asrwt>0</asrwt>
<pdfrwt beam="1">  1        2 0.23136980E+00 0.95015372E+03</pdfrwt>
<pdfrwt beam="2">  1       -2 0.60967881E-01 0.95015372E+03</pdfrwt>
<totfact> 0.31709455E+01</totfact>
</mgrwt>
</event>
<event>
 6      1 +1.8175624e-03 9.31109500e+02 7.81860800e-03 9.38750700e-02
       -1 -1    0    0    0  501 -0.0000000000e+00 +0.0000000000e+00 +2.3902924101e+02 2.3902924107e+02 5.0400000000e-03 0.0000e+00 1.0000e+00
        1 -1    0    0  501    0 +0.0000000000e+00 -0.0000000000e+00 -9.0675601734e+02 9.0675601736e+02 5.0400000000e-03 0.0000e+00 -1.0000e+00
      -13  1    1    2    0    0 -2.1472752685e+02 -1.1166539290e+02 +1.2301816456e+02 2.7149687058e+02 1.0566000000e-01 0.0000e+00 1.0000e+00
       13  1    1    2    0    0 +1.9431910156e+02 +4.4664044362e+01 -6.4852283875e+02 6.7848115201e+02 1.0566000000e-01 0.0000e+00 -1.0000e+00
      -13  1    1    2    0    0 -4.1273433134e+01 +2.1584113742e+01 -1.8136198459e+01 4.9983028193e+01 1.0566000000e-01 0.0000e+00 1.0000e+00
       13  1    1    2    0    0 +6.1681858431e+01 +4.5417234794e+01 -1.2408590368e+02 1.4582420764e+02 1.0566000000e-01 0.0000e+00 -1.0000e+00
<mgrwt>
<rscale>  0 0.93110945E+03</rscale>
<asrwt>0</asrwt>
<pdfrwt beam="1">  1        1 0.22668900E+00 0.93110945E+03</pdfrwt>
<pdfrwt beam="2">  1       -1 0.59757313E-01 0.93110945E+03</pdfrwt>
<totfact> 0.19622323E+01</totfact>
</mgrwt>
</event>
<event>
 6      1 +1.8175624e-03 2.26464000e+02 7.81860800e-03 1.12915400e-01
       -1 -1    0    0    0  501 -0.0000000000e+00 +0.0000000000e+00 +3.3883860097e+01 3.3883860472e+01 5.0400000000e-03 0.0000e+00 1.0000e+00
        1 -1    0    0  501    0 +0.0000000000e+00 -0.0000000000e+00 -3.7839499188e+02 3.7839499192e+02 5.0400000000e-03 0.0000e+00 -1.0000e+00
      -13  1    1    2    0    0 +2.8166756784e+01 -2.2547755144e+01 -3.9393416965e+01 5.3419284102e+01 1.0566000000e-01 0.0000e+00 -1.0000e+00
       13  1    1    2    0    0 +3.5920178290e+00 -1.8612785027e+01 -2.0616095129e+00 1.9068291910e+01 1.0566000000e-01 0.0000e+00 1.0000e+00
      -13  1    1    2    0    0 +3.1101095533e+01 +7.3855796153e+01 -1.9205763604e+02 2.0810599101e+02 1.0566000000e-01 0.0000e+00 -1.0000e+00
       13  1    1    2    0    0 -6.2859870146e+01 -3.2695255983e+01 -1.1099846927e+02 1.3168528537e+02 1.0566000000e-01 0.0000e+00 1.0000e+00
<mgrwt>
<rscale>  0 0.22646398E+03</rscale>
<asrwt>0</asrwt>
<pdfrwt beam="1">  1        1 0.94598735E-01 0.22646398E+03</pdfrwt>
<pdfrwt beam="2">  1       -1 0.84709662E-02 0.22646398E+03</pdfrwt>
<totfact> 0.26613385E+03</totfact>
</mgrwt>
</event>
<event>
 6      1 +1.8175624e-03 2.31665200e+02 7.81860800e-03 1.12547300e-01
       -2 -1    0    0    0  501 -0.0000000000e+00 +0.0000000000e+00 +2.6989195147e+01 2.6989195268e+01 2.5500000000e-03 0.0000e+00 -1.0000e+00
        2 -1    0    0  501    0 +0.0000000000e+00 -0.0000000000e+00 -4.9713197063e+02 4.9713197063e+02 2.5500000000e-03 0.0000e+00 1.0000e+00
      -13  1    1    2    0    0 -5.3186734280e+00 -3.1657759210e+01 -5.8045594720e+01 6.6331020161e+01 1.0566000000e-01 0.0000e+00 -1.0000e+00
       13  1    1    2    0    0 +4.5038868449e+01 -4.3400165332e+01 -2.7775778671e+02 2.8471296645e+02 1.0566000000e-01 0.0000e+00 1.0000e+00
      -13  1    1    2    0    0 -1.5526503445e+01 +1.2690021760e+01 +3.0342316066e+00 2.0281190472e+01 1.0566000000e-01 0.0000e+00 -1.0000e+00
       13  1    1    2    0    0 -2.4193691576e+01 +6.2367902781e+01 -1.3737362566e+02 1.5279598882e+02 1.0566000000e-01 0.0000e+00 1.0000e+00
<mgrwt>
<rscale>  0 0.23166521E+03</rscale>
<asrwt>0</asrwt>
<pdfrwt beam="1">  1        2 0.12428296E+00 0.23166521E+03</pdfrwt>
<pdfrwt beam="2">  1       -2 0.67473004E-02 0.23166521E+03</pdfrwt>
<totfact> 0.42910977E+03</totfact>
</mgrwt>
</event>
<event>
 6      1 +1.8175624e-03 2.31442700e+02 7.81860800e-03 1.12562800e-01
        1 -1    0    0  501    0 +0.0000000000e+00 +0.0000000000e+00 +1.7221757854e+02 1.7221757861e+02 5.0400000000e-03 0.0000e+00 -1.0000e+00
       -1 -1    0    0    0  501 -0.0000000000e+00 -0.0000000000e+00 -7.7758763639e+01 7.7758763802e+01 5.0400000000e-03 0.0000e+00 1.0000e+00
      -13  1    1    2    0    0 +3.5757206056e+01 -2.1837046328e+01 +5.2600774316e+01 6.7247951641e+01 1.0566000000e-01 0.0000e+00 1.0000e+00
       13  1    1    2    0    0 -3.7131269892e+01 -4.0488224809e+01 +3.9122318534e+01 6.7443268926e+01 1.0566000000e-01 0.0000e+00 -1.0000e+00
      -13  1    1    2    0    0 -3.8840564003e+01 +9.4550910026e+00 -2.0483501592e+01 4.4917403748e+01 1.0566000000e-01 0.0000e+00 1.0000e+00
       13  1    1    2    0    0 +4.0214627838e+01 +5.2870180134e+01 +2.3219223639e+01 7.0367718096e+01 1.0566000000e-01 0.0000e+00 -1.0000e+00
<mgrwt>
<rscale>  0 0.23144266E+03</rscale>
<asrwt>0</asrwt>
<pdfrwt beam="1">  1        1 0.43054394E-01 0.23144266E+03</pdfrwt>
<pdfrwt beam="2">  1       -1 0.19439691E-01 0.23144266E+03</pdfrwt>
<totfact> 0.20090671E+03</totfact>
</mgrwt>
</event>
<event>
 6      1 +1.8175624e-03 4.12264100e+02 7.81860800e-03 1.03961400e-01
       -2 -1    0    0    0  501 -0.0000000000e+00 +0.0000000000e+00 +1.4182223178e+02 1.4182223180e+02 2.5500000000e-03 0.0000e+00 1.0000e+00
        2 -1    0    0  501    0 +0.0000000000e+00 -0.0000000000e+00 -2.9960335042e+02 2.9960335043e+02 2.5500000000e-03 0.0000e+00 -1.0000e+00
      -13  1    1    2    0    0 +1.8746565223e+01 -2.0307840985e+01 -3.1386423645e+01 4.1820579461e+01 1.0566000000e-01 0.0000e+00 1.0000e+00
       13  1    1    2    0    0 +4.6253978540e+01 -9.2592319952e+00 -1.2693709772e+02 1.3541861707e+02 1.0566000000e-01 0.0000e+00 -1.0000e+00
      -13  1    1    2    0    0 +6.5148915905e+01 +7.2622725927e+01 +6.0244122323e+01 1.1466388709e+02 1.0566000000e-01 0.0000e+00 1.0000e+00
       13  1    1    2    0    0 -1.3014945967e+02 -4.3055652947e+01 -5.9701719603e+01 1.4952249861e+02 1.0566000000e-01 0.0000e+00 -1.0000e+00
<mgrwt>
<rscale>  0 0.41226407E+03</rscale>
<asrwt>0</asrwt>
<pdfrwt beam="1">  1        2 0.74900836E-01 0.41226407E+03</pdfrwt>
<pdfrwt beam="2">  1       -2 0.35455558E-01 0.41226407E+03</pdfrwt>
<totfact> 0.48140753E+02</totfact>
</mgrwt>
</event>
<event>
 6      1 +1.8175624e-03 8.27423800e+02 7.81860800e-03 9.52114900e-02
       -2 -1    0    0    0  501 -0.0000000000e+00 +0.0000000000e+00 +1.3803548383e+02 1.3803548385e+02 2.5500000000e-03 0.0000e+00 1.0000e+00
        2 -1    0    0  501    0 +0.0000000000e+00 -0.0000000000e+00 -1.2399530560e+03 1.2399530560e+03 2.5500000000e-03 0.0000e+00 -1.0000e+00
      -13  1    1    2    0    0 -5.1651984792e+01 +2.8302252853e+02 -5.5021348548e+02 6.2089014323e+02 1.0566000000e-01 0.0000e+00 -1.0000e+00
       13  1    1    2    0    0 +1.5400418772e+02 -3.4086815281e+02 -4.2217334902e+02 5.6403788456e+02 1.0566000000e-01 0.0000e+00 -1.0000e+00
      -13  1    1    2    0    0 -1.1454785789e+02 +6.0046088107e+01 -1.0928134053e+02 1.6931971828e+02 1.0566000000e-01 0.0000e+00 1.0000e+00
       13  1    1    2    0    0 +1.2195654968e+01 -2.2004638229e+00 -2.0249397161e+01 2.3740793807e+01 1.0566000000e-01 0.0000e+00 1.0000e+00
<mgrwt>
<rscale>  0 0.82742376E+03</rscale>
<asrwt>0</asrwt>
<pdfrwt beam="1">  1        2 0.30998823E+00 0.82742376E+03</pdfrwt>
<pdfrwt beam="2">  1       -2 0.34508875E-01 0.82742376E+03</pdfrwt>
<totfact> 0.52662880E+01</totfact>
</mgrwt>
</event>
<event>
 6      1 +1.8175624e-03 8.08768700e+02 7.81860800e-03 9.54741100e-02
       -1 -1    0    0    0  501 -0.0000000000e+00 +0.0000000000e+00 +1.6258724745e+02 1.6258724753e+02 5.0400000000e-03 0.0000e+00 -1.0000e+00
        1 -1    0    0  501    0 +0.0000000000e+00 -0.0000000000e+00 -1.0057780456e+03 1.0057780457e+03 5.0400000000e-03 0.0000e+00 1.0000e+00
      -13  1    1    2    0    0 -2.5738170514e+02 +1.1616264282e+02 -3.4329322489e+01 2.8446021739e+02 1.0566000000e-01 0.0000e+00 -1.0000e+00
       13  1    1    2    0    0 +9.3938561963e+01 +1.2532654970e+01 -9.4995376973e+01 1.3418514700e+02 1.0566000000e-01 0.0000e+00 -1.0000e+00
      -13  1    1    2    0    0 +3.7496116430e+01 -6.1135331901e+01 -1.2850606332e+02 1.4716421789e+02 1.0566000000e-01 0.0000e+00 1.0000e+00
       13  1    1    2    0    0 +1.2594702675e+02 -6.7559965891e+01 -5.8536003541e+02 6.0255571091e+02 1.0566000000e-01 0.0000e+00 1.0000e+00
<mgrwt>
<rscale>  0 0.80876865E+03</rscale>
<asrwt>0</asrwt>
<pdfrwt beam="1">  1        1 0.25144449E+00 0.80876865E+03</pdfrwt>
<pdfrwt beam="2">  1       -1 0.40646815E-01 0.80876865E+03</pdfrwt>
<totfact> 0.32058009E+01</totfact>
</mgrwt>
</event>
<event>
 7      1 +1.8175624e-03 9.44561500e+01 7.81860800e-03 1.29240600e-01
       -2 -1    0    0    0  501 -0.0000000000e+00 +0.0000000000e+00 +1.6507441313e+01 1.6507441510e+01 2.5500000000e-03 0.0000e+00 1.0000e+00
        2 -1    0    0  501    0 +0.0000000000e+00 -0.0000000000e+00 -1.3512032752e+02 1.3512032754e+02 2.5500000000e-03 0.0000e+00 -1.0000e+00
       23  2    1    2    0    0 -8.8817841970e-16 -7.1054273576e-15 -1.1861288620e+02 1.5162776905e+02 9.4456146300e+01 0.0000e+00 0.0000e+00
      -13  1    3    3    0    0 +4.5005134708e+00 +3.4976860795e+01 -4.1055474589e+01 5.4122071009e+01 1.0566000000e-01 0.0000e+00 1.0000e+00
       13  1    3    3    0    0 +5.5650593057e+00 -1.3365437426e+01 -3.6827693544e+01 3.9571390909e+01 1.0566000000e-01 0.0000e+00 -1.0000e+00
      -13  1    3    3    0    0 -1.3185460831e+01 +4.5110813587e+00 -2.0308458852e+01 2.4630284151e+01 1.0566000000e-01 0.0000e+00 1.0000e+00
       13  1    3    3    0    0 +3.1198880542e+00 -2.6122504727e+01 -2.0421259216e+01 3.3304022981e+01 1.0566000000e-01 0.0000e+00 -1.0000e+00
<mgrwt>
<rscale>  0 0.94456146E+02</rscale>
<asrwt>0</asrwt>
<pdfrwt beam="1">  1        2 0.33780079E-01 0.94456146E+02</pdfrwt>
<pdfrwt beam="2">  1       -2 0.41268608E-02 0.94456146E+02</pdfrwt>
<totfact> 0.35630201E+04</totfact>
</mgrwt>
</event>
<event>
 6      1 +1.8175624e-03 2.35534200e+02 7.81860800e-03 1.12280400e-01
        2 -1    0    0  501    0 +0.0000000000e+00 +0.0000000000e+00 +3.9108925671e+02 3.9108925672e+02 2.5500000000e-03 0.0000e+00 -1.0000e+00
       -2 -1    0    0    0  501 -0.0000000000e+00 -0.0000000000e+00 -3.5462733936e+01 3.5462734028e+01 2.5500000000e-03 0.0000e+00 1.0000e+00
      -13  1    1    2    0    0 -5.4473327572e+01 -3.1412466054e+01 +3.8836517637e+01 7.3907866337e+01 1.0566000000e-01 0.0000e+00 1.0000e+00
       13  1    1    2    0    0 +3.3743348109e+01 +8.2338759239e+00 +3.0946308098e+01 4.6519838814e+01 1.0566000000e-01 0.0000e+00 -1.0000e+00
      -13  1    1    2    0    0 +6.0936493543e+01 +2.5673662111e+01 +1.4018300764e+02 1.5499574177e+02 1.0566000000e-01 0.0000e+00 1.0000e+00
       13  1    1    2    0    0 -4.0206514080e+01 -2.4950719815e+00 +1.4566068940e+02 1.5112854383e+02 1.0566000000e-01 0.0000e+00 -1.0000e+00
<mgrwt>
<rscale>  0 0.23553424E+03</rscale>
<asrwt>0</asrwt>
<pdfrwt beam="1">  1        2 0.97772314E-01 0.23553424E+03</pdfrwt>
<pdfrwt beam="2">  1       -2 0.88656835E-02 0.23553424E+03</pdfrwt>
<totfact> 0.37604797E+03</totfact>
</mgrwt>
</event>
<event>
 6      1 +1.8175624e-03 4.06696800e+02 7.81860800e-03 1.04148500e-01
        2 -1    0    0  501    0 +0.0000000000e+00 +0.0000000000e+00 +6.7054757910e+02 6.7054757911e+02 2.5500000000e-03 0.0000e+00 1.0000e+00
       -2 -1    0    0    0  501 -0.0000000000e+00 -0.0000000000e+00 -6.1666873483e+01 6.1666873536e+01 2.5500000000e-03 0.0000e+00 -1.0000e+00
      -13  1    1    2    0    0 +1.2391131810e+02 +7.2605475991e+01 +2.3359565228e+02 2.7421252675e+02 1.0566000000e-01 0.0000e+00 -1.0000e+00
       13  1    1    2    0    0 +6.5797882073e+00 +2.5888423968e+01 +1.3585201921e+01 2.9967865852e+01 1.0566000000e-01 0.0000e+00 -1.0000e+00
      -13  1    1    2    0    0 -1.0619781175e+02 +1.2459250057e+01 +2.3311647089e+02 2.5646931258e+02 1.0566000000e-01 0.0000e+00 1.0000e+00
       13  1    1    2    0    0 -2.4293294564e+01 -1.1095315002e+02 +1.2858338053e+02 1.7156474746e+02 1.0566000000e-01 0.0000e+00 1.0000e+00
<mgrwt>
<rscale>  0 0.40669680E+03</rscale>
<asrwt>0</asrwt>
<pdfrwt beam="1">  1        2 0.16763689E+00 0.40669680E+03</pdfrwt>
<pdfrwt beam="2">  1       -2 0.15416718E-01 0.40669680E+03</pdfrwt>
<totfact> 0.75412870E+02</totfact>
</mgrwt>
</event>
<event>
 6      1 +1.8175624e-03 7.81077700e+02 7.81860800e-03 9.58781700e-02
       -2 -1    0    0    0  501 -0.0000000000e+00 +0.0000000000e+00 +1.0866999910e+02 1.0866999913e+02 2.5500000000e-03 0.0000e+00 1.0000e+00
        2 -1    0    0  501    0 +0.0000000000e+00 -0.0000000000e+00 -1.4035208628e+03 1.4035208628e+03 2.5500000000e-03 0.0000e+00 -1.0000e+00
      -13  1    1    2    0    0 +3.4296227152e+01 +3.3929541709e+01 -7.7477833770e+01 9.1270317668e+01 1.0566000000e-01 0.0000e+00 1.0000e+00
       13  1    1    2    0    0 -2.1326194718e+01 +4.5955585676e+00 +1.7599919858e+01 2.8030235153e+01 1.0566000000e-01 0.0000e+00 -1.0000e+00
      -13  1    1    2    0    0 +9.6857658391e+01 -2.8332272471e+02 -3.1504476742e+02 4.3463362614e+02 1.0566000000e-01 0.0000e+00 1.0000e+00
       13  1    1    2    0    0 -1.0982769083e+02 +2.4479762443e+02 -9.1992818240e+02 9.5825668301e+02 1.0566000000e-01 0.0000e+00 -1.0000e+00
<mgrwt>
<rscale>  0 0.78107774E+03</rscale>
<asrwt>0</asrwt>
<pdfrwt beam="1">  1        2 0.35088016E+00 0.78107774E+03</pdfrwt>
<pdfrwt beam="2">  1       -2 0.27167504E-01 0.78107774E+03</pdfrwt>
<totfact> 0.59029996E+01</totfact>
</mgrwt>
</event>
<event>
 6      1 +1.8175624e-03 3.37769500e+02 7.81860800e-03 1.06775000e-01
        2 -1    0    0  501    0 +0.0000000000e+00 +0.0000000000e+00 +1.9538221404e+02 1.9538221406e+02 2.5500000000e-03 0.0000e+00 1.0000e+00
       -2 -1    0    0    0  501 -0.0000000000e+00 -0.0000000000e+00 -1.4598079920e+02 1.4598079923e+02 2.5500000000e-03 0.0000e+00 -1.0000e+00
      -13  1    1    2    0    0 -2.1808462959e+01 +8.9907450884e+01 -2.1331185161e+01 9.4942031817e+01 1.0566000000e-01 0.0000e+00 -1.0000e+00
       13  1    1    2    0    0 +5.6459003346e+01 +3.0862849008e+00 +1.3460858020e+01 5.8123575905e+01 1.0566000000e-01 0.0000e+00 1.0000e+00
      -13  1    1    2    0    0 +2.8052263255e+01 -8.7703589342e+01 -1.4092427668e+01 9.3152867583e+01 1.0566000000e-01 0.0000e+00 -1.0000e+00
       13  1    1    2    0    0 -6.2702803642e+01 -5.2901464423e+00 +7.1364169646e+01 9.5144537979e+01 1.0566000000e-01 0.0000e+00 1.0000e+00
<mgrwt>
<rscale>  0 0.33776946E+03</rscale>
<asrwt>0</asrwt>
<pdfrwt beam="1">  1        2 0.48845553E-01 0.33776946E+03</pdfrwt>
<pdfrwt beam="2">  1       -2 0.36495200E-01 0.33776946E+03</pdfrwt>
<totfact> 0.73226587E+02</totfact>
</mgrwt>
</event>
<event>
 6      1 +1.8175624e-03 3.07153300e+02 7.81860800e-03 1.08171800e-01
       -2 -1    0    0    0  501 -0.0000000000e+00 +0.0000000000e+00 +3.7512296091e+01 3.7512296178e+01 2.5500000000e-03 0.0000e+00 -1.0000e+00
        2 -1    0    0  501    0 +0.0000000000e+00 -0.0000000000e+00 -6.2874803301e+02 6.2874803301e+02 2.5500000000e-03 0.0000e+00 1.0000e+00
      -13  1    1    2    0    0 -2.0331169577e+01 +6.2521553641e+01 -3.4594861467e+01 7.4290758039e+01 1.0566000000e-01 0.0000e+00 -1.0000e+00
       13  1    1    2    0    0 +2.4424500675e+01 -7.1005563965e+01 -3.8198134282e+02 3.8929179772e+02 1.0566000000e-01 0.0000e+00 1.0000e+00
      -13  1    1    2    0    0 -5.0855071297e+01 -9.3769522982e+00 -1.0318263464e+02 1.1541591210e+02 1.0566000000e-01 0.0000e+00 -1.0000e+00
       13  1    1    2    0    0 +4.6761740199e+01 +1.7860962622e+01 -7.1476897990e+01 8.7261861328e+01 1.0566000000e-01 0.0000e+00 1.0000e+00
<mgrwt>
<rscale>  0 0.30715327E+03</rscale>
<asrwt>0</asrwt>
<pdfrwt beam="1">  1        2 0.15718697E+00 0.30715327E+03</pdfrwt>
<pdfrwt beam="2">  1       -2 0.93780761E-02 0.30715327E+03</pdfrwt>
<totfact> 0.18716681E+03</totfact>
</mgrwt>
</event>
<event>
 6      1 +1.8175624e-03 2.90957600e+02 7.81860800e-03 1.08985000e-01
       -3 -1    0    0    0  501 -0.0000000000e+00 +0.0000000000e+00 +6.0174756769e+01 6.0174841530e+01 1.0100000000e-01 0.0000e+00 1.0000e+00
        3 -1    0    0  501    0 +0.0000000000e+00 -0.0000000000e+00 -3.5170994937e+02 3.5170996387e+02 1.0100000000e-01 0.0000e+00 -1.0000e+00
      -13  1    1    2    0    0 +4.1402500393e+01 -3.5846648928e+01 -1.4780824228e+02 1.5762752592e+02 1.0566000000e-01 0.0000e+00 -1.0000e+00
       13  1    1    2    0    0 +1.4830272637e+01 -5.5939797688e+01 -3.8572239314e+01 6.9548736592e+01 1.0566000000e-01 0.0000e+00 1.0000e+00
      -13  1    1    2    0    0 +1.7082045922e+01 +5.2516679939e+01 -6.3957887210e+00 5.5594201515e+01 1.0566000000e-01 0.0000e+00 -1.0000e+00
       13  1    1    2    0    0 -7.3314818952e+01 +3.9269766676e+01 -9.8758922280e+01 1.2911434137e+02 1.0566000000e-01 0.0000e+00 1.0000e+00
<mgrwt>
<rscale>  0 0.29095760E+03</rscale>
<asrwt>0</asrwt>
<pdfrwt beam="1">  1        3 0.87927494E-01 0.29095760E+03</pdfrwt>
<pdfrwt beam="2">  1       -3 0.15043703E-01 0.29095760E+03</pdfrwt>
<totfact> 0.11280638E+02</totfact>
</mgrwt>
</event>
<event>
 6      1 +1.8175624e-03 2.12838200e+02 7.81860800e-03 1.13933800e-01
       -2 -1    0    0    0  501 -0.0000000000e+00 +0.0000000000e+00 +2.4426004430e+02 2.4426004432e+02 2.5500000000e-03 0.0000e+00 1.0000e+00
        2 -1    0    0  501    0 +0.0000000000e+00 -0.0000000000e+00 -4.6364613651e+01 4.6364613721e+01 2.5500000000e-03 0.0000e+00 -1.0000e+00
      -13  1    1    2    0    0 +1.5884095444e+01 +7.0370598269e+00 +1.4433338802e+01 2.2586658276e+01 1.0566000000e-01 0.0000e+00 1.0000e+00
       13  1    1    2    0    0 +4.8378555750e+01 -3.8786659225e+01 +1.0480694961e+01 6.2886769047e+01 1.0566000000e-01 0.0000e+00 -1.0000e+00
      -13  1    1    2    0    0 -3.9662133660e+01 +2.7584358271e+01 +1.7359565937e+02 1.8019280170e+02 1.0566000000e-01 0.0000e+00 1.0000e+00
       13  1    1    2    0    0 -2.4600517533e+01 +4.1652411270e+00 -6.1426247958e-01 2.4958429017e+01 1.0566000000e-01 0.0000e+00 -1.0000e+00
<mgrwt>
<rscale>  0 0.21283818E+03</rscale>
<asrwt>0</asrwt>
<pdfrwt beam="1">  1        2 0.11591154E-01 0.21283818E+03</pdfrwt>
<pdfrwt beam="2">  1       -2 0.61065009E-01 0.21283818E+03</pdfrwt>
<totfact> 0.13463411E+03</totfact>
</mgrwt>
</event>
<event>
 6      1 +1.8175624e-03 4.73866700e+02 7.81860800e-03 1.02083500e-01
        2 -1    0    0  501    0 +0.0000000000e+00 +0.0000000000e+00 +5.8198191390e+02 5.8198191390e+02 2.5500000000e-03 0.0000e+00 -1.0000e+00
       -2 -1    0    0    0  501 -0.0000000000e+00 -0.0000000000e+00 -9.6459034512e+01 9.6459034546e+01 2.5500000000e-03 0.0000e+00 1.0000e+00
      -13  1    1    2    0    0 +2.9498841812e+01 +5.6223209608e+00 +1.6307117935e+02 1.6581318663e+02 1.0566000000e-01 0.0000e+00 1.0000e+00
       13  1    1    2    0    0 +7.9645669569e+01 -4.9223954001e+00 +5.5771112229e+01 9.7355486650e+01 1.0566000000e-01 0.0000e+00 -1.0000e+00
      -13  1    1    2    0    0 -1.6081419813e+02 -1.1147160569e+02 +1.7452134902e+02 2.6219236759e+02 1.0566000000e-01 0.0000e+00 1.0000e+00
       13  1    1    2    0    0 +5.1669686751e+01 +1.1077168013e+02 +9.2159238788e+01 1.5307990758e+02 1.0566000000e-01 0.0000e+00 -1.0000e+00
<mgrwt>
<rscale>  0 0.47386671E+03</rscale>
<asrwt>0</asrwt>
<pdfrwt beam="1">  1        2 0.14549548E+00 0.47386671E+03</pdfrwt>
<pdfrwt beam="2">  1       -2 0.24114759E-01 0.47386671E+03</pdfrwt>
<totfact> 0.42641361E+02</totfact>
</mgrwt>
</event>
<event>
 6      1 +1.8175624e-03 3.40596000e+02 7.81860800e-03 1.06654200e-01
       -1 -1    0    0    0  501 -0.0000000000e+00 +0.0000000000e+00 +3.9599023784e+01 3.9599024105e+01 5.0400000000e-03 0.0000e+00 -1.0000e+00
        1 -1    0    0  501    0 +0.0000000000e+00 -0.0000000000e+00 -7.3237664666e+02 7.3237664668e+02 5.0400000000e-03 0.0000e+00 1.0000e+00
      -13  1    1    2    0    0 -7.0271914478e+01 +5.3681089398e+01 -3.2619233647e+02 3.3796634870e+02 1.0566000000e-01 0.0000e+00 -1.0000e+00
       13  1    1    2    0    0 -2.3873461502e+01 -3.5704826918e+01 -6.7770645726e+01 8.0234957565e+01 1.0566000000e-01 0.0000e+00 1.0000e+00
      -13  1    1    2    0    0 +1.7869099966e+01 +3.3488420409e+01 +3.1628011905e+00 3.8089283408e+01 1.0566000000e-01 0.0000e+00 -1.0000e+00
       13  1    1    2    0    0 +7.6276276014e+01 -5.1464682888e+01 -3.0197744187e+02 3.1568508110e+02 1.0566000000e-01 0.0000e+00 1.0000e+00
<mgrwt>
<rscale>  0 0.34059595E+03</rscale>
<asrwt>0</asrwt>
<pdfrwt beam="1">  1        1 0.18309412E+00 0.34059595E+03</pdfrwt>
<pdfrwt beam="2">  1       -1 0.98997584E-02 0.34059595E+03</pdfrwt>
<totfact> 0.71852433E+02</totfact>
</mgrwt>
</event>
<event>
 6      1 +1.8175624e-03 2.60488700e+02 7.81860800e-03 1.10685000e-01
        1 -1    0    0  501    0 +0.0000000000e+00 +0.0000000000e+00 +8.9448043014e+01 8.9448043156e+01 5.0400000000e-03 0.0000e+00 -1.0000e+00
       -1 -1    0    0    0  501 -0.0000000000e+00 -0.0000000000e+00 -1.8964738199e+02 1.8964738206e+02 5.0400000000e-03 0.0000e+00 1.0000e+00
      -13  1    1    2    0    0 -9.5301127624e+00 +5.6010243215e+01 -4.9062475698e+01 7.5067356954e+01 1.0566000000e-01 0.0000e+00 1.0000e+00
       13  1    1    2    0    0 -4.9565964184e+01 -9.0377855812e+01 +1.1939721613e+00 1.0308432645e+02 1.0566000000e-01 0.0000e+00 -1.0000e+00
      -13  1    1    2    0    0 +4.9113296715e+01 +3.7932254387e+01 -6.1173727652e+01 8.7139015119e+01 1.0566000000e-01 0.0000e+00 1.0000e+00
       13  1    1    2    0    0 +9.9827802318e+00 -3.5646417908e+00 +8.8428922109e+00 1.3804726688e+01 1.0566000000e-01 0.0000e+00 -1.0000e+00
<mgrwt>
<rscale>  0 0.26048867E+03</rscale>
<asrwt>0</asrwt>
<pdfrwt beam="1">  1        1 0.22362011E-01 0.26048867E+03</pdfrwt>
<pdfrwt beam="2">  1       -1 0.47411845E-01 0.26048867E+03</pdfrwt>
<totfact> 0.10014893E+03</totfact>
</mgrwt>
</event>
<event>
 7      1 +1.8175624e-03 9.02780800e+01 7.81860800e-03 1.30218000e-01
       -1 -1    0    0    0  501 -0.0000000000e+00 +0.0000000000e+00 +3.1148559205e+01 3.1148559613e+01 5.0400000000e-03 0.0000e+00 1.0000e+00
        1 -1    0    0  501    0 +0.0000000000e+00 -0.0000000000e+00 -6.5413391169e+01 6.5413391363e+01 5.0400000000e-03 0.0000e+00 -1.0000e+00
       23  2    1    2    0    0 -8.8817841970e-16 +0.0000000000e+00 -3.4264831964e+01 9.6561950976e+01 9.0278079658e+01 0.0000e+00 0.0000e+00
      -13  1    3    3    0    0 -2.0731633624e+01 +5.8675385675e+00 +1.8532800015e+00 2.1625782121e+01 1.0566000000e-01 0.0000e+00 1.0000e+00
       13  1    3    3    0    0 +3.7354925223e+00 +1.4863710628e+01 -3.3741234579e+00 1.5693300200e+01 1.0566000000e-01 0.0000e+00 1.0000e+00
      -13  1    3    3    0    0 -4.9520303176e+00 -1.3084769528e+01 +5.0497572179e+00 1.4874307038e+01 1.0566000000e-01 0.0000e+00 -1.0000e+00
       13  1    3    3    0    0 +2.1948171419e+01 -7.6464796677e+00 -3.7793745725e+01 4.4368561617e+01 1.0566000000e-01 0.0000e+00 -1.0000e+00
<mgrwt>
<rscale>  0 0.90278080E+02</rscale>
<asrwt>0</asrwt>
<pdfrwt beam="1">  1        1 0.16353348E-01 0.90278080E+02</pdfrwt>
<pdfrwt beam="2">  1       -1 0.77871400E-02 0.90278080E+02</pdfrwt>
<totfact> 0.26209889E+04</totfact>
</mgrwt>
</event>
<event>
 6      1 +1.8175624e-03 3.45567400e+02 7.81860800e-03 1.06444900e-01
        2 -1    0    0  501    0 +0.0000000000e+00 +0.0000000000e+00 +1.3804994060e+02 1.3804994062e+02 2.5500000000e-03 0.0000e+00 1.0000e+00
       -2 -1    0    0    0  501 -0.0000000000e+00 -0.0000000000e+00 -2.1625653375e+02 2.1625653377e+02 2.5500000000e-03 0.0000e+00 -1.0000e+00
      -13  1    1    2    0    0 +3.1948083094e+01 -2.5045148561e+00 -8.5820335977e+01 9.1608372102e+01 1.0566000000e-01 0.0000e+00 1.0000e+00
       13  1    1    2    0    0 +6.1188235421e+01 -3.6616186393e+01 +4.9054533773e+01 8.6551162370e+01 1.0566000000e-01 0.0000e+00 1.0000e+00
      -13  1    1    2    0    0 -1.1411861099e+02 +4.1169962858e+01 -7.0447136676e+01 1.4028839384e+02 1.0566000000e-01 0.0000e+00 -1.0000e+00
       13  1    1    2    0    0 +2.0982292473e+01 -2.0492616084e+00 +2.9006345724e+01 3.5858546079e+01 1.0566000000e-01 0.0000e+00 -1.0000e+00
<mgrwt>
<rscale>  0 0.34556737E+03</rscale>
<asrwt>0</asrwt>
<pdfrwt beam="1">  1        2 0.34512485E-01 0.34556737E+03</pdfrwt>
<pdfrwt beam="2">  1       -2 0.54064133E-01 0.34556737E+03</pdfrwt>
<totfact> 0.49440820E+02</totfact>
</mgrwt>
</event>
<event>
 6      1 +1.8175624e-03 2.59602300e+02 7.81860800e-03 1.10738200e-01
       -4 -1    0    0    0  501 -0.0000000000e+00 +0.0000000000e+00 +5.2681476407e+01 5.2696782221e+01 1.2700000000e+00 0.0000e+00 1.0000e+00
        4 -1    0    0  501    0 +0.0000000000e+00 -0.0000000000e+00 -3.1975218446e+02 3.1975470656e+02 1.2700000000e+00 0.0000e+00 -1.0000e+00
      -13  1    1    2    0    0 +6.4505362478e+01 +1.3840797572e+01 -4.7651007389e+00 6.6145497314e+01 1.0566000000e-01 0.0000e+00 1.0000e+00
       13  1    1    2    0    0 +2.8751618080e+01 +5.8956019274e+00 -1.2240753981e+02 1.2587704569e+02 1.0566000000e-01 0.0000e+00 1.0000e+00
      -13  1    1    2    0    0 -6.3046140573e+01 +1.7194366843e+01 -6.9628945876e+01 9.5491692623e+01 1.0566000000e-01 0.0000e+00 -1.0000e+00
       13  1    1    2    0    0 -3.0210839986e+01 -3.6930766342e+01 -7.0269121622e+01 8.4937253151e+01 1.0566000000e-01 0.0000e+00 -1.0000e+00
<mgrwt>
<rscale>  0 0.25960229E+03</rscale>
<asrwt>0</asrwt>
<pdfrwt beam="1">  1        4 0.79940269E-01 0.25960229E+03</pdfrwt>
<pdfrwt beam="2">  1       -4 0.13172598E-01 0.25960229E+03</pdfrwt>
<totfact> 0.12380706E+02</totfact>
</mgrwt>
</event>
<event>
 6      1 +1.8175624e-03 8.74998200e+02 7.81860800e-03 9.45738600e-02
       -1 -1    0    0    0  501 -0.0000000000e+00 +0.0000000000e+00 +3.0234209684e+02 3.0234209689e+02 5.0400000000e-03 0.0000e+00 1.0000e+00
        1 -1    0    0  501    0 +0.0000000000e+00 -0.0000000000e+00 -6.3307581858e+02 6.3307581860e+02 5.0400000000e-03 0.0000e+00 -1.0000e+00
      -13  1    1    2    0    0 -5.5347860922e+01 +1.0573395206e+01 +5.2495469941e+01 7.7012777661e+01 1.0566000000e-01 0.0000e+00 1.0000e+00
       13  1    1    2    0    0 -8.0198609907e+01 -7.4881056842e+01 +1.0181278366e+02 1.4968247655e+02 1.0566000000e-01 0.0000e+00 -1.0000e+00
      -13  1    1    2    0    0 +1.4809773748e+01 -2.7181918376e+01 +9.9846826815e+01 1.0453509494e+02 1.0566000000e-01 0.0000e+00 1.0000e+00
       13  1    1    2    0    0 +1.2073669708e+02 +9.1489580012e+01 -5.8488880215e+02 6.0418756634e+02 1.0566000000e-01 0.0000e+00 -1.0000e+00
<mgrwt>
<rscale>  0 0.87499822E+03</rscale>
<asrwt>0</asrwt>
<pdfrwt beam="1">  1        1 0.15826895E+00 0.87499822E+03</pdfrwt>
<pdfrwt beam="2">  1       -1 0.75585525E-01 0.87499822E+03</pdfrwt>
<totfact> 0.25645430E+01</totfact>
</mgrwt>
</event>
<event>
 6      1 +1.8175624e-03 3.37310200e+02 7.81860800e-03 1.06794700e-01
        2 -1    0    0  501    0 +0.0000000000e+00 +0.0000000000e+00 +1.8495905259e+02 1.8495905261e+02 2.5500000000e-03 0.0000e+00 -1.0000e+00
       -2 -1    0    0    0  501 -0.0000000000e+00 -0.0000000000e+00 -1.5378833488e+02 1.5378833490e+02 2.5500000000e-03 0.0000e+00 1.0000e+00
      -13  1    1    2    0    0 -5.5164259014e-01 -2.6157266952e+01 -2.3735647677e+01 3.5325614766e+01 1.0566000000e-01 0.0000e+00 -1.0000e+00
       13  1    1    2    0    0 -7.7512175409e+00 +1.6893000917e+01 +1.0713797614e+02 1.0873827270e+02 1.0566000000e-01 0.0000e+00 -1.0000e+00
      -13  1    1    2    0    0 +5.5300825014e+01 -7.3064129263e+01 -3.6273133980e+01 9.8551000224e+01 1.0566000000e-01 0.0000e+00 1.0000e+00
       13  1    1    2    0    0 -4.6997964883e+01 +8.2328395298e+01 -1.5958476776e+01 9.6132499814e+01 1.0566000000e-01 0.0000e+00 1.0000e+00
<mgrwt>
<rscale>  0 0.33731021E+03</rscale>
<asrwt>0</asrwt>
<pdfrwt beam="1">  1        2 0.46239763E-01 0.33731021E+03</pdfrwt>
<pdfrwt beam="2">  1       -2 0.38447084E-01 0.33731021E+03</pdfrwt>
<totfact> 0.70400167E+02</totfact>
</mgrwt>
</event>
<event>
 6      1 +1.8175624e-03 4.63930900e+02 7.81860800e-03 1.02364700e-01
       -2 -1    0    0    0  501 -0.0000000000e+00 +0.0000000000e+00 +9.0604866729e+01 9.0604866765e+01 2.5500000000e-03 0.0000e+00 -1.0000e+00
        2 -1    0    0  501    0 +0.0000000000e+00 -0.0000000000e+00 -5.9387498558e+02 5.9387498559e+02 2.5500000000e-03 0.0000e+00 1.0000e+00
      -13  1    1    2    0    0 +7.1561341180e+00 -5.3428942121e+01 -8.3844411823e+01 9.9678275816e+01 1.0566000000e-01 0.0000e+00 -1.0000e+00
       13  1    1    2    0    0 -8.2047995848e+01 -1.8368033313e+01 -2.3573139013e+02 2.5027696204e+02 1.0566000000e-01 0.0000e+00 1.0000e+00
      -13  1    1    2    0    0 -2.0422245109e+00 +8.0054654319e+01 +4.5858541332e+01 9.2281825600e+01 1.0566000000e-01 0.0000e+00 -1.0000e+00
       13  1    1    2    0    0 +7.6934086241e+01 -8.2576788837e+00 -2.2955285823e+02 2.4224278890e+02 1.0566000000e-01 0.0000e+00 1.0000e+00
<mgrwt>
<rscale>  0 0.46393087E+03</rscale>
<asrwt>0</asrwt>
<pdfrwt beam="1">  1        2 0.14846874E+00 0.46393087E+03</pdfrwt>
<pdfrwt beam="2">  1       -2 0.22651218E-01 0.46393087E+03</pdfrwt>
<totfact> 0.46332081E+02</totfact>
</mgrwt>
</event>
<event>
 6      1 +1.8175624e-03 3.12629300e+02 7.81860800e-03 1.07909200e-01
        2 -1    0    0  501    0 +0.0000000000e+00 +0.0000000000e+00 +1.4153055135e+02 1.4153055137e+02 2.5500000000e-03 0.0000e+00 1.0000e+00
       -2 -1    0    0    0  501 -0.0000000000e+00 -0.0000000000e+00 -1.7264307940e+02 1.7264307942e+02 2.5500000000e-03 0.0000e+00 -1.0000e+00
      -13  1    1    2    0    0 +1.0020840131e+01 +1.7064298338e+01 +1.9795000677e+01 2.7990368532e+01 1.0566000000e-01 0.0000e+00 -1.0000e+00
       13  1    1    2    0    0 +2.0726686504e+01 +8.0455671307e+00 +9.4738760667e+01 9.7312746445e+01 1.0566000000e-01 0.0000e+00 1.0000e+00
      -13  1    1    2    0    0 +3.5364199160e+01 +7.8875919524e+00 -8.7957887553e+01 9.5128554262e+01 1.0566000000e-01 0.0000e+00 -1.0000e+00
       13  1    1    2    0    0 -6.6111725794e+01 -3.2997457422e+01 -5.7688401846e+01 9.3741961550e+01 1.0566000000e-01 0.0000e+00 1.0000e+00
<mgrwt>
<rscale>  0 0.31262930E+03</rscale>
<asrwt>0</asrwt>
<pdfrwt beam="1">  1        2 0.35382638E-01 0.31262930E+03</pdfrwt>
<pdfrwt beam="2">  1       -2 0.43160770E-01 0.31262930E+03</pdfrwt>
<totfact> 0.75382679E+02</totfact>
</mgrwt>
</event>
<event>
 6      1 +1.8175624e-03 2.88574600e+02 7.81860800e-03 1.09109600e-01
       -2 -1    0    0    0  501 -0.0000000000e+00 +0.0000000000e+00 +5.2194745803e+01 5.2194745866e+01 2.5500000000e-03 0.0000e+00 -1.0000e+00
        2 -1    0    0  501    0 +0.0000000000e+00 -0.0000000000e+00 -3.9886810682e+02 3.9886810683e+02 2.5500000000e-03 0.0000e+00 1.0000e+00
      -13  1    1    2    0    0 -5.3272707732e+01 -1.0927648158e+01 -8.4707975928e+01 1.0066204465e+02 1.0566000000e-01 0.0000e+00 1.0000e+00
       13  1    1    2    0    0 +1.9549121099e+01 +1.0437929315e+02 -1.0080773341e+02 1.4642204497e+02 1.0566000000e-01 0.0000e+00 -1.0000e+00
      -13  1    1    2    0    0 -1.4971432251e+01 -5.3695863275e+01 -1.0847223162e+02 1.2195747502e+02 1.0566000000e-01 0.0000e+00 1.0000e+00
       13  1    1    2    0    0 +4.8695018884e+01 -3.9755781712e+01 -5.2685420059e+01 8.2021288056e+01 1.0566000000e-01 0.0000e+00 -1.0000e+00
<mgrwt>
<rscale>  0 0.28857456E+03</rscale>
<asrwt>0</asrwt>
<pdfrwt beam="1">  1        2 0.99717018E-01 0.28857456E+03</pdfrwt>
<pdfrwt beam="2">  1       -2 0.13048688E-01 0.28857456E+03</pdfrwt>
<totfact> 0.19839594E+03</totfact>
</mgrwt>
</event>
<event>
 6      1 +1.8175624e-03 2.66981700e+02 7.81860800e-03 1.10302000e-01
        2 -1    0    0  501    0 +0.0000000000e+00 +0.0000000000e+00 +5.7750583855e+01 5.7750583911e+01 2.5500000000e-03 0.0000e+00 -1.0000e+00
       -2 -1    0    0    0  501 -0.0000000000e+00 -0.0000000000e+00 -3.0856497815e+02 3.0856497816e+02 2.5500000000e-03 0.0000e+00 1.0000e+00
      -13  1    1    2    0    0 -7.9029642232e-01 -5.7679651072e+01 -1.7152555778e+02 1.8096572839e+02 1.0566000000e-01 0.0000e+00 1.0000e+00
       13  1    1    2    0    0 +3.6597390383e+01 -8.9557158872e-01 +2.5364361416e+00 3.6696262802e+01 1.0566000000e-01 0.0000e+00 -1.0000e+00
      -13  1    1    2    0    0 -2.6482555730e+01 -1.4614850354e+00 +1.7815037088e+01 3.1950718411e+01 1.0566000000e-01 0.0000e+00 -1.0000e+00
       13  1    1    2    0    0 -9.3245382308e+00 +6.0036707696e+01 -9.9640309743e+01 1.1670285247e+02 1.0566000000e-01 0.0000e+00 1.0000e+00
<mgrwt>
<rscale>  0 0.26698170E+03</rscale>
<asrwt>0</asrwt>
<pdfrwt beam="1">  1        2 0.14437647E-01 0.26698170E+03</pdfrwt>
<pdfrwt beam="2">  1       -2 0.77141240E-01 0.26698170E+03</pdfrwt>
<totfact> 0.63010668E+02</totfact>
</mgrwt>
</event>
<event>
 6      1 +1.8175624e-03 2.97791600e+02 7.81860800e-03 1.08635000e-01
       -2 -1    0    0    0  501 -0.0000000000e+00 +0.0000000000e+00 +8.4496846318e+01 8.4496846356e+01 2.5500000000e-03 0.0000e+00 1.0000e+00
        2 -1    0    0  501    0 +0.0000000000e+00 -0.0000000000e+00 -2.6237612798e+02 2.6237612800e+02 2.5500000000e-03 0.0000e+00 -1.0000e+00
      -13  1    1    2    0    0 -4.3205502425e+01 +1.9512898782e+01 -3.6270321335e+01 5.9691004620e+01 1.0566000000e-01 0.0000e+00 1.0000e+00
       13  1    1    2    0    0 +9.5595000378e+01 +2.7487222251e-01 -1.5171425077e+02 1.7932011795e+02 1.0566000000e-01 0.0000e+00 -1.0000e+00
      -13  1    1    2    0    0 -3.7209928193e+01 -1.9629689801e+01 +4.9901060285e+01 6.5268908827e+01 1.0566000000e-01 0.0000e+00 1.0000e+00
       13  1    1    2    0    0 -1.5179569759e+01 -1.5808120404e-01 -3.9795769847e+01 4.2592942954e+01 1.0566000000e-01 0.0000e+00 -1.0000e+00
<mgrwt>
<rscale>  0 0.29779157E+03</rscale>
<asrwt>0</asrwt>
<pdfrwt beam="1">  1        2 0.65594030E-01 0.29779157E+03</pdfrwt>
<pdfrwt beam="2">  1       -2 0.21124212E-01 0.29779157E+03</pdfrwt>
<totfact> 0.14238703E+03</totfact>
</mgrwt>
</event>
<event>
 6      1 +1.8175624e-03 2.91908600e+02 7.81860800e-03 1.08935700e-01
       -1 -1    0    0    0  501 -0.0000000000e+00 +0.0000000000e+00 +5.1068030840e+01 5.1068031089e+01 5.0400000000e-03 0.0000e+00 -1.0000e+00
        1 -1    0    0  501    0 +0.0000000000e+00 -0.0000000000e+00 -4.1714265555e+02 4.1714265558e+02 5.0400000000e-03 0.0000e+00 1.0000e+00
      -13  1    1    2    0    0 -2.3895969647e+01 -1.4332660342e+01 -7.3586831785e+00 2.8820199514e+01 1.0566000000e-01 0.0000e+00 1.0000e+00
       13  1    1    2    0    0 +4.6781874433e+01 +4.5821319683e+01 -1.5295931181e+02 1.6638719706e+02 1.0566000000e-01 0.0000e+00 -1.0000e+00
      -13  1    1    2    0    0 -1.9087770012e+01 +3.0652650668e+01 +1.8282660261e+01 4.0474619050e+01 1.0566000000e-01 0.0000e+00 -1.0000e+00
       13  1    1    2    0    0 -3.7981347740e+00 -6.2141310008e+01 -2.2403928999e+02 2.3252867105e+02 1.0566000000e-01 0.0000e+00 1.0000e+00
<mgrwt>
<rscale>  0 0.29190858E+03</rscale>
<asrwt>0</asrwt>
<pdfrwt beam="1">  1        1 0.10428565E+00 0.29190858E+03</pdfrwt>
<pdfrwt beam="2">  1       -1 0.12767009E-01 0.29190858E+03</pdfrwt>
<totfact> 0.12285827E+03</totfact>
</mgrwt>
</event>
<event>
 6      1 +1.8175624e-03 2.03673000e+02 7.81860800e-03 1.14667700e-01
        1 -1    0    0  501    0 +0.0000000000e+00 +0.0000000000e+00 +1.7202120634e+02 1.7202120642e+02 5.0400000000e-03 0.0000e+00 -1.0000e+00
       -1 -1    0    0    0  501 -0.0000000000e+00 -0.0000000000e+00 -6.0287191280e+01 6.0287191490e+01 5.0400000000e-03 0.0000e+00 1.0000e+00
      -13  1    1    2    0    0 -2.9430757938e+01 -1.3466025992e+01 +2.8408402363e+01 4.3064508097e+01 1.0566000000e-01 0.0000e+00 1.0000e+00
       13  1    1    2    0    0 -8.3599811207e+00 +3.5816863280e+01 +1.1992686002e+00 3.6799271579e+01 1.0566000000e-01 0.0000e+00 -1.0000e+00
      -13  1    1    2    0    0 +4.2634625884e+01 +1.1418604234e-01 -2.0478153761e+01 4.7297889046e+01 1.0566000000e-01 0.0000e+00 1.0000e+00
       13  1    1    2    0    0 -4.8438868254e+00 -2.2465023330e+01 +1.0260449786e+02 1.0514672919e+02 1.0566000000e-01 0.0000e+00 -1.0000e+00
<mgrwt>
<rscale>  0 0.20367303E+03</rscale>
<asrwt>0</asrwt>
<pdfrwt beam="1">  1        1 0.43005301E-01 0.20367303E+03</pdfrwt>
<pdfrwt beam="2">  1       -1 0.15071798E-01 0.20367303E+03</pdfrwt>
<totfact> 0.30124266E+03</totfact>
</mgrwt>
</event>
<event>
 6      1 +1.8175624e-03 3.58136100e+02 7.81860800e-03 1.05932400e-01
       -2 -1    0    0    0  501 -0.0000000000e+00 +0.0000000000e+00 +2.6867405404e+01 2.6867405525e+01 2.5500000000e-03 0.0000e+00 -1.0000e+00
        2 -1    0    0  501    0 +0.0000000000e+00 -0.0000000000e+00 -1.1934670282e+03 1.1934670282e+03 2.5500000000e-03 0.0000e+00 1.0000e+00
      -13  1    1    2    0    0 +1.2138224256e+02 -3.9610571788e+01 -2.5288233186e+02 2.8328807094e+02 1.0566000000e-01 0.0000e+00 -1.0000e+00
       13  1    1    2    0    0 -2.0536684985e+01 +6.2034433056e+01 -2.7930586149e+02 2.8684804643e+02 1.0566000000e-01 0.0000e+00 1.0000e+00
      -13  1    1    2    0    0 -1.1111436599e+02 -4.2081150841e+01 -5.6388768114e+02 5.7626951480e+02 1.0566000000e-01 0.0000e+00 1.0000e+00
       13  1    1    2    0    0 +1.0268808409e+01 +1.9657289572e+01 -7.0523748268e+01 7.3928801514e+01 1.0566000000e-01 0.0000e+00 -1.0000e+00
<mgrwt>
<rscale>  0 0.35813608E+03</rscale>
<asrwt>0</asrwt>
<pdfrwt beam="1">  1        2 0.29836658E+00 0.35813608E+03</pdfrwt>
<pdfrwt beam="2">  1       -2 0.67168554E-02 0.35813608E+03</pdfrwt>
<totfact> 0.98502246E+02</totfact>
</mgrwt>
</event>
<event>
 6      1 +1.8175624e-03 1.66811700e+02 7.81860800e-03 1.18121400e-01
       -2 -1    0    0    0  501 -0.0000000000e+00 +0.0000000000e+00 +2.9494562532e+01 2.9494562642e+01 2.5500000000e-03 0.0000e+00 1.0000e+00
        2 -1    0    0  501    0 +0.0000000000e+00 -0.0000000000e+00 -2.3585831678e+02 2.3585831679e+02 2.5500000000e-03 0.0000e+00 -1.0000e+00
      -13  1    1    2    0    0 +1.9425919873e+01 -2.9350081231e+01 -4.3371539065e+01 5.5856022021e+01 1.0566000000e-01 0.0000e+00 -1.0000e+00
       13  1    1    2    0    0 -3.1085752193e+01 +5.9593376898e+01 -6.8260838871e+01 9.5797953250e+01 1.0566000000e-01 0.0000e+00 1.0000e+00
      -13  1    1    2    0    0 +4.9216234862e-02 -3.9348191896e+01 -3.6650799183e+01 5.3773365828e+01 1.0566000000e-01 0.0000e+00 1.0000e+00
       13  1    1    2    0    0 +1.1610616085e+01 +9.1048962289e+00 -5.8080577128e+01 5.9925538335e+01 1.0566000000e-01 0.0000e+00 -1.0000e+00
<mgrwt>
<rscale>  0 0.16681172E+03</rscale>
<asrwt>0</asrwt>
<pdfrwt beam="1">  1        2 0.58964574E-01 0.16681172E+03</pdfrwt>
<pdfrwt beam="2">  1       -2 0.73736414E-02 0.16681172E+03</pdfrwt>
<totfact> 0.86709628E+03</totfact>
</mgrwt>
</event>
<event>
 6      1 +1.8175624e-03 7.73218000e+02 7.81860800e-03 9.59961300e-02
       -2 -1    0    0    0  501 -0.0000000000e+00 +0.0000000000e+00 +1.0044719608e+02 1.0044719611e+02 2.5500000000e-03 0.0000e+00 -1.0000e+00
        2 -1    0    0  501    0 +0.0000000000e+00 -0.0000000000e+00 -1.4880108760e+03 1.4880108760e+03 2.5500000000e-03 0.0000e+00 1.0000e+00
      -13  1    1    2    0    0 +6.6076487783e+01 +1.3373641161e+02 -2.4064235534e+02 2.8312591611e+02 1.0566000000e-01 0.0000e+00 -1.0000e+00
       13  1    1    2    0    0 -2.8771529114e+01 +6.7738471777e+00 -2.1003929939e+01 3.6261027703e+01 1.0566000000e-01 0.0000e+00 1.0000e+00
      -13  1    1    2    0    0 -1.1214981699e+02 -3.2974602414e+02 -4.8845860772e+02 5.9991819818e+02 1.0566000000e-01 0.0000e+00 -1.0000e+00
       13  1    1    2    0    0 +7.4844858324e+01 +1.8923576535e+02 -6.3745878696e+02 6.6915293016e+02 1.0566000000e-01 0.0000e+00 1.0000e+00
<mgrwt>
<rscale>  0 0.77321800E+03</rscale>
<asrwt>0</asrwt>
<pdfrwt beam="1">  1        2 0.37200265E+00 0.77321800E+03</pdfrwt>
<pdfrwt beam="2">  1       -2 0.25111804E-01 0.77321800E+03</pdfrwt>
<totfact> 0.57131048E+01</totfact>
</mgrwt>
</event>
<event>
 6      1 +1.8175624e-03 2.71657800e+02 7.81860800e-03 1.10033500e-01
        2 -1    0    0  501    0 +0.0000000000e+00 +0.0000000000e+00 +5.1305934092e+01 5.1305934155e+01 2.5500000000e-03 0.0000e+00 -1.0000e+00
       -2 -1    0    0    0  501 -0.0000000000e+00 -0.0000000000e+00 -3.5959767025e+02 3.5959767026e+02 2.5500000000e-03 0.0000e+00 1.0000e+00
      -13  1    1    2    0    0 -2.1486566225e+01 -7.7100365234e+00 -8.7819622349e+00 2.4459174477e+01 1.0566000000e-01 0.0000e+00 1.0000e+00
       13  1    1    2    0    0 -4.5420931189e+01 +3.0223345963e+01 -6.8938680725e+00 5.4991346704e+01 1.0566000000e-01 0.0000e+00 -1.0000e+00
      -13  1    1    2    0    0 -3.0871554223e+01 -1.9517781259e+01 -1.7356311388e+02 1.7736448999e+02 1.0566000000e-01 0.0000e+00 1.0000e+00
       13  1    1    2    0    0 +9.7779051638e+01 -2.9955281808e+00 -1.1905279197e+02 1.5408859325e+02 1.0566000000e-01 0.0000e+00 -1.0000e+00
<mgrwt>
<rscale>  0 0.27165783E+03</rscale>
<asrwt>0</asrwt>
<pdfrwt beam="1">  1        2 0.12826485E-01 0.27165783E+03</pdfrwt>
<pdfrwt beam="2">  1       -2 0.89899410E-01 0.27165783E+03</pdfrwt>
<totfact> 0.51656054E+02</totfact>
</mgrwt>
</event>
<event>
 6      1 +1.8175624e-03 2.00821900e+02 7.81860800e-03 1.14904700e-01
        2 -1    0    0  501    0 +0.0000000000e+00 +0.0000000000e+00 +8.8347732010e+01 8.8347732047e+01 2.5500000000e-03 0.0000e+00 -1.0000e+00
       -2 -1    0    0    0  501 -0.0000000000e+00 -0.0000000000e+00 -1.1412130339e+02 1.1412130341e+02 2.5500000000e-03 0.0000e+00 1.0000e+00
      -13  1    1    2    0    0 +3.6804742730e+01 -2.0136277748e+01 +2.0723075118e+01 4.6792261917e+01 1.0566000000e-01 0.0000e+00 1.0000e+00
       13  1    1    2    0    0 -4.3860777005e+01 +5.6396024282e-01 -4.1518139732e+01 6.0397457740e+01 1.0566000000e-01 0.0000e+00 -1.0000e+00
      -13  1    1    2    0    0 +1.4521599778e+01 -3.6068331114e+01 +3.8868197426e-01 3.8883976226e+01 1.0566000000e-01 0.0000e+00 1.0000e+00
       13  1    1    2    0    0 -7.4655655027e+00 +5.5640648619e+01 -5.3671887352e+00 5.6395339577e+01 1.0566000000e-01 0.0000e+00 -1.0000e+00
<mgrwt>
<rscale>  0 0.20082189E+03</rscale>
<asrwt>0</asrwt>
<pdfrwt beam="1">  1        2 0.22086933E-01 0.20082189E+03</pdfrwt>
<pdfrwt beam="2">  1       -2 0.28530326E-01 0.20082189E+03</pdfrwt>
<totfact> 0.27311277E+03</totfact>
</mgrwt>
</event>
<event>
 6      1 +1.8175624e-03 3.33650500e+02 7.81860800e-03 1.06953300e-01
       -2 -1    0    0    0  501 -0.0000000000e+00 +0.0000000000e+00 +2.6035611786e+01 2.6035611911e+01 2.5500000000e-03 0.0000e+00 1.0000e+00
        2 -1    0    0  501    0 +0.0000000000e+00 -0.0000000000e+00 -1.0689461380e+03 1.0689461380e+03 2.5500000000e-03 0.0000e+00 -1.0000e+00
      -13  1    1    2    0    0 -1.0424794866e+01 -7.9979963324e+01 -2.6290812152e+02 2.7500211346e+02 1.0566000000e-01 0.0000e+00 -1.0000e+00
       13  1    1    2    0    0 +6.5135770985e+01 -4.3861017136e+01 -4.3464014279e+02 4.4167694345e+02 1.0566000000e-01 0.0000e+00 -1.0000e+00
      -13  1    1    2    0    0 -2.5750386742e+01 +1.0001837348e+02 -1.6950070155e+02 1.9848742136e+02 1.0566000000e-01 0.0000e+00 1.0000e+00
       13  1    1    2    0    0 -2.8960589378e+01 +2.3822606983e+01 -1.7586156033e+02 1.7981527162e+02 1.0566000000e-01 0.0000e+00 1.0000e+00
<mgrwt>
<rscale>  0 0.33365052E+03</rscale>
<asrwt>0</asrwt>
<pdfrwt beam="1">  1        2 0.26723639E+00 0.33365052E+03</pdfrwt>
<pdfrwt beam="2">  1       -2 0.65089065E-02 0.33365052E+03</pdfrwt>
<totfact> 0.13272370E+03</totfact>
</mgrwt>
</event>
<event>
 6      1 +1.8175624e-03 3.62528000e+02 7.81860800e-03 1.05758700e-01
        1 -1    0    0  501    0 +0.0000000000e+00 +0.0000000000e+00 +2.2634821767e+02 2.2634821772e+02 5.0400000000e-03 0.0000e+00 -1.0000e+00
       -1 -1    0    0    0  501 -0.0000000000e+00 -0.0000000000e+00 -1.4515970479e+02 1.4515970488e+02 5.0400000000e-03 0.0000e+00 1.0000e+00
      -13  1    1    2    0    0 +3.6327687602e+00 +1.0634536800e+02 +5.2864177403e+01 1.1881568382e+02 1.0566000000e-01 0.0000e+00 1.0000e+00
       13  1    1    2    0    0 +5.4568620909e+01 -9.6913820218e+01 +4.6142743614e+01 1.2041256948e+02 1.0566000000e-01 0.0000e+00 -1.0000e+00
      -13  1    1    2    0    0 -8.0114838054e+01 +1.0851324725e+01 -4.4457705278e+01 9.2263954214e+01 1.0566000000e-01 0.0000e+00 1.0000e+00
       13  1    1    2    0    0 +2.1913448384e+01 -2.0282872512e+01 +2.6639297140e+01 4.0015715083e+01 1.0566000000e-01 0.0000e+00 -1.0000e+00
<mgrwt>
<rscale>  0 0.36252802E+03</rscale>
<asrwt>0</asrwt>
<pdfrwt beam="1">  1        1 0.56587054E-01 0.36252802E+03</pdfrwt>
<pdfrwt beam="2">  1       -1 0.36289926E-01 0.36252802E+03</pdfrwt>
<totfact> 0.49643522E+02</totfact>
</mgrwt>
</event>
<event>
 6      1 +1.8175624e-03 1.59227400e+02 7.81860800e-03 1.18957200e-01
       -2 -1    0    0    0  501 -0.0000000000e+00 +0.0000000000e+00 +2.2045420091e+01 2.2045420238e+01 2.5500000000e-03 0.0000e+00 1.0000e+00
        2 -1    0    0  501    0 +0.0000000000e+00 -0.0000000000e+00 -2.8751284800e+02 2.8751284801e+02 2.5500000000e-03 0.0000e+00 -1.0000e+00
      -13  1    1    2    0    0 +1.5864816311e+00 -2.2917596423e+01 -6.8558209639e+00 2.3973873172e+01 1.0566000000e-01 0.0000e+00 1.0000e+00
       13  1    1    2    0    0 -7.4409236710e+00 +2.0330270919e+01 -7.5055773828e+01 7.8115732152e+01 1.0566000000e-01 0.0000e+00 -1.0000e+00
      -13  1    1    2    0    0 +3.6104194539e+01 -3.2670373033e+01 -7.5369996210e+01 8.9730226959e+01 1.0566000000e-01 0.0000e+00 -1.0000e+00
       13  1    1    2    0    0 -3.0249752499e+01 +3.5257698536e+01 -1.0818583691e+02 1.1773843597e+02 1.0566000000e-01 0.0000e+00 1.0000e+00
<mgrwt>
<rscale>  0 0.15922740E+03</rscale>
<asrwt>0</asrwt>
<pdfrwt beam="1">  1        2 0.71878200E-01 0.15922740E+03</pdfrwt>
<pdfrwt beam="2">  1       -2 0.55113559E-02 0.15922740E+03</pdfrwt>
<totfact> 0.10888654E+04</totfact>
</mgrwt>
</event>
<event>
 6      1 +1.8175624e-03 2.53231700e+02 7.81860800e-03 1.11127900e-01
        2 -1    0    0  501    0 +0.0000000000e+00 +0.0000000000e+00 +1.4773964733e+02 1.4773964735e+02 2.5500000000e-03 0.0000e+00 -1.0000e+00
       -2 -1    0    0    0  501 -0.0000000000e+00 -0.0000000000e+00 -1.0851235004e+02 1.0851235007e+02 2.5500000000e-03 0.0000e+00 1.0000e+00
      -13  1    1    2    0    0 -4.8381205795e+00 -2.7967843684e+01 +2.6762613051e+01 3.9010976820e+01 1.0566000000e-01 0.0000e+00 -1.0000e+00
       13  1    1    2    0    0 -2.8972231278e+01 +3.1669281286e+01 +3.4473262376e+01 5.5052252863e+01 1.0566000000e-01 0.0000e+00 -1.0000e+00
      -13  1    1    2    0    0 -6.2868506521e+01 -9.8260136994e+00 -4.9344831827e+00 6.3822879484e+01 1.0566000000e-01 0.0000e+00 1.0000e+00
       13  1    1    2    0    0 +9.6678858379e+01 +6.1245760981e+00 -1.7074094948e+01 9.8365888255e+01 1.0566000000e-01 0.0000e+00 1.0000e+00
<mgrwt>
<rscale>  0 0.25323172E+03</rscale>
<asrwt>0</asrwt>
<pdfrwt beam="1">  1        2 0.36934912E-01 0.25323172E+03</pdfrwt>
<pdfrwt beam="2">  1       -2 0.27128088E-01 0.25323172E+03</pdfrwt>
<totfact> 0.17062473E+03</totfact>
</mgrwt>
</event>
<event>
 6      1 +1.8175624e-03 3.42129000e+02 7.81860800e-03 1.06589300e-01
        2 -1    0    0  501    0 +0.0000000000e+00 +0.0000000000e+00 +8.7967993209e+02 8.7967993209e+02 2.5500000000e-03 0.0000e+00 1.0000e+00
       -2 -1    0    0    0  501 -0.0000000000e+00 -0.0000000000e+00 -3.3265582955e+01 3.3265583053e+01 2.5500000000e-03 0.0000e+00 -1.0000e+00
      -13  1    1    2    0    0 -4.5214428578e+01 -4.7707346918e-01 +1.7667447894e+02 1.8236900730e+02 1.0566000000e-01 0.0000e+00 -1.0000e+00
       13  1    1    2    0    0 -1.0868696128e+00 -7.5992591447e+01 +1.1036058484e+02 1.3399822794e+02 1.0566000000e-01 0.0000e+00 1.0000e+00
      -13  1    1    2    0    0 -7.2044859772e+01 +1.4574701240e+01 +1.8329500206e+02 1.9748405678e+02 1.0566000000e-01 0.0000e+00 -1.0000e+00
       13  1    1    2    0    0 +1.1834615796e+02 +6.1894963676e+01 +3.7608428328e+02 3.9909422312e+02 1.0566000000e-01 0.0000e+00 1.0000e+00
<mgrwt>
<rscale>  0 0.34212902E+03</rscale>
<asrwt>0</asrwt>
<pdfrwt beam="1">  1        2 0.21991998E+00 0.34212902E+03</pdfrwt>
<pdfrwt beam="2">  1       -2 0.83163958E-02 0.34212902E+03</pdfrwt>
<totfact> 0.13214382E+03</totfact>
</mgrwt>
</event>
<event>
 6      1 +1.8175624e-03 2.44104900e+02 7.81860800e-03 1.11708800e-01
       -1 -1    0    0    0  501 -0.0000000000e+00 +0.0000000000e+00 +1.1831902853e+02 1.1831902863e+02 5.0400000000e-03 0.0000e+00 1.0000e+00
        1 -1    0    0  501    0 +0.0000000000e+00 -0.0000000000e+00 -1.2590367495e+02 1.2590367505e+02 5.0400000000e-03 0.0000e+00 -1.0000e+00
      -13  1    1    2    0    0 +3.3696445906e+01 +1.7081904509e+01 -2.6926787405e+01 4.6392940975e+01 1.0566000000e-01 0.0000e+00 -1.0000e+00
       13  1    1    2    0    0 +3.1232818303e+01 +8.7089941591e+00 +4.7665535217e+01 5.7648503276e+01 1.0566000000e-01 0.0000e+00 -1.0000e+00
      -13  1    1    2    0    0 -6.0000770099e+01 +1.0836532804e+01 -6.4294814325e+01 8.8607884350e+01 1.0566000000e-01 0.0000e+00 1.0000e+00
       13  1    1    2    0    0 -4.9284941096e+00 -3.6627431472e+01 +3.5971420088e+01 5.1573375084e+01 1.0566000000e-01 0.0000e+00 1.0000e+00
<mgrwt>
<rscale>  0 0.24410490E+03</rscale>
<asrwt>0</asrwt>
<pdfrwt beam="1">  1        1 0.31475919E-01 0.24410490E+03</pdfrwt>
<pdfrwt beam="2">  1       -1 0.29579757E-01 0.24410490E+03</pdfrwt>
<totfact> 0.14868369E+03</totfact>
</mgrwt>
</event>
<event>
 6      1 +1.8175624e-03 2.61254000e+02 7.81860800e-03 1.10639200e-01
        1 -1    0    0  501    0 +0.0000000000e+00 +0.0000000000e+00 +3.7735278608e+02 3.7735278611e+02 5.0400000000e-03 0.0000e+00 1.0000e+00
       -1 -1    0    0    0  501 -0.0000000000e+00 -0.0000000000e+00 -4.5218716894e+01 4.5218717175e+01 5.0400000000e-03 0.0000e+00 -1.0000e+00
      -13  1    1    2    0    0 +7.3425690733e+01 +9.4008577698e+01 +1.7122193948e+02 2.0867656424e+02 1.0566000000e-01 0.0000e+00 -1.0000e+00
       13  1    1    2    0    0 -1.4573592522e+01 -1.5252434565e+01 +1.5948620770e+01 2.6446096643e+01 1.0566000000e-01 0.0000e+00 1.0000e+00
      -13  1    1    2    0    0 -4.5843805350e+01 -8.5940293729e+00 +4.6643633060e+01 6.5963258705e+01 1.0566000000e-01 0.0000e+00 1.0000e+00
       13  1    1    2    0    0 -1.3008292861e+01 -7.0162113760e+01 +9.8319875870e+01 1.2148558369e+02 1.0566000000e-01 0.0000e+00 -1.0000e+00
<mgrwt>
<rscale>  0 0.26125397E+03</rscale>
<asrwt>0</asrwt>
<pdfrwt beam="1">  1        1 0.94338194E-01 0.26125397E+03</pdfrwt>
<pdfrwt beam="2">  1       -1 0.11304680E-01 0.26125397E+03</pdfrwt>
<totfact> 0.17143054E+03</totfact>
</mgrwt>
</event>
<event>
 6      1 +1.8175624e-03 5.15325700e+02 7.81860800e-03 1.00985400e-01
        2 -1    0    0  501    0 +0.0000000000e+00 +0.0000000000e+00 +2.7151430327e+02 2.7151430328e+02 2.5500000000e-03 0.0000e+00 1.0000e+00
       -2 -1    0    0    0  501 -0.0000000000e+00 -0.0000000000e+00 -2.4451805705e+02 2.4451805706e+02 2.5500000000e-03 0.0000e+00 -1.0000e+00
      -13  1    1    2    0    0 -8.3497227200e+01 -1.8920439585e+02 +2.3113495723e+01 2.0809693704e+02 1.0566000000e-01 0.0000e+00 -1.0000e+00
       13  1    1    2    0    0 -3.0645723204e+01 +2.2824689624e+01 +8.5026853131e+00 3.9146310538e+01 1.0566000000e-01 0.0000e+00 1.0000e+00
      -13  1    1    2    0    0 +3.7084817490e+01 -3.0830661144e+01 -2.8009236489e+01 5.5770438833e+01 1.0566000000e-01 0.0000e+00 -1.0000e+00
       13  1    1    2    0    0 +7.7058132915e+01 +1.9721036737e+02 +2.3389301672e+01 2.1301867393e+02 1.0566000000e-01 0.0000e+00 1.0000e+00
<mgrwt>
<rscale>  0 0.51532572E+03</rscale>
<asrwt>0</asrwt>
<pdfrwt beam="1">  1        2 0.67878576E-01 0.51532572E+03</pdfrwt>
<pdfrwt beam="2">  1       -2 0.61129515E-01 0.51532572E+03</pdfrwt>
<totfact> 0.18076297E+02</totfact>
</mgrwt>
</event>
<event>
 6      1 +1.8175624e-03 2.53722200e+02 7.81860800e-03 1.11097500e-01
       -1 -1    0    0    0  501 -0.0000000000e+00 +0.0000000000e+00 +1.0728824555e+02 1.0728824567e+02 5.0400000000e-03 0.0000e+00 1.0000e+00
        1 -1    0    0  501    0 +0.0000000000e+00 -0.0000000000e+00 -1.5000471921e+02 1.5000471929e+02 5.0400000000e-03 0.0000e+00 -1.0000e+00
      -13  1    1    2    0    0 +1.5264331404e+01 -4.0107572896e+01 -5.5465453559e-01 4.2917782125e+01 1.0566000000e-01 0.0000e+00 1.0000e+00
       13  1    1    2    0    0 -3.1495148324e+01 +5.3455707158e+01 -2.1631770390e+01 6.5706937609e+01 1.0566000000e-01 0.0000e+00 -1.0000e+00
      -13  1    1    2    0    0 -3.2922181142e+01 -6.5243590073e+01 -2.4507208353e+01 7.7079248064e+01 1.0566000000e-01 0.0000e+00 1.0000e+00
       13  1    1    2    0    0 +4.9152998061e+01 +5.1895455812e+01 +3.9771596186e+00 7.1588997164e+01 1.0566000000e-01 0.0000e+00 -1.0000e+00
<mgrwt>
<rscale>  0 0.25372224E+03</rscale>
<asrwt>0</asrwt>
<pdfrwt beam="1">  1        1 0.37501180E-01 0.25372224E+03</pdfrwt>
<pdfrwt beam="2">  1       -1 0.26822062E-01 0.25372224E+03</pdfrwt>
<totfact> 0.14077312E+03</totfact>
</mgrwt>
</event>
<event>
 6      1 +1.8175624e-03 3.43662100e+02 7.81860800e-03 1.06524700e-01
        1 -1    0    0  501    0 +0.0000000000e+00 +0.0000000000e+00 +9.4607054319e+02 9.4607054320e+02 5.0400000000e-03 0.0000e+00 -1.0000e+00
       -1 -1    0    0    0  501 -0.0000000000e+00 -0.0000000000e+00 -3.1208993705e+01 3.1208994112e+01 5.0400000000e-03 0.0000e+00 1.0000e+00
      -13  1    1    2    0    0 -3.6615666973e+01 -5.4137990215e+01 +3.6394512009e+02 3.6976707621e+02 1.0566000000e-01 0.0000e+00 -1.0000e+00
       13  1    1    2    0    0 +3.2417169351e+01 -3.0529941599e+01 +6.1718101457e+01 7.6105751519e+01 1.0566000000e-01 0.0000e+00 1.0000e+00
      -13  1    1    2    0    0 -4.2235591519e+01 -4.6774407304e+01 +2.1138697369e+02 2.2058140034e+02 1.0566000000e-01 0.0000e+00 1.0000e+00
       13  1    1    2    0    0 +4.6434089141e+01 +1.3144233912e+02 +2.7781135425e+02 3.1082530924e+02 1.0566000000e-01 0.0000e+00 -1.0000e+00
<mgrwt>
<rscale>  0 0.34366210E+03</rscale>
<asrwt>0</asrwt>
<pdfrwt beam="1">  1        1 0.23651763E+00 0.34366210E+03</pdfrwt>
<pdfrwt beam="2">  1       -1 0.78022486E-02 0.34366210E+03</pdfrwt>
<totfact> 0.60120176E+02</totfact>
</mgrwt>
</event>
<event>
 6      1 +1.8175624e-03 2.38941500e+02 7.81860800e-03 1.12050000e-01
        2 -1    0    0  501    0 +0.0000000000e+00 +0.0000000000e+00 +8.7903722208e+02 8.7903722208e+02 2.5500000000e-03 0.0000e+00 -1.0000e+00
       -2 -1    0    0    0  501 -0.0000000000e+00 -0.0000000000e+00 -1.6237376951e+01 1.6237377151e+01 2.5500000000e-03 0.0000e+00 1.0000e+00
      -13  1    1    2    0    0 -4.4408944656e+01 -1.2513104974e+01 +2.6818149794e+02 2.7212140519e+02 1.0566000000e-01 0.0000e+00 1.0000e+00
       13  1    1    2    0    0 +7.3412600343e+01 +2.5056355670e+01 +3.4516385711e+02 3.5377299257e+02 1.0566000000e-01 0.0000e+00 -1.0000e+00
      -13  1    1    2    0    0 -5.2579963705e+01 +2.1881953062e+01 +1.7496780576e+02 1.8400330614e+02 1.0566000000e-01 0.0000e+00 -1.0000e+00
       13  1    1    2    0    0 +2.3576308018e+01 -3.4425203758e+01 +7.4486684319e+01 8.5376895343e+01 1.0566000000e-01 0.0000e+00 1.0000e+00
<mgrwt>
<rscale>  0 0.23894149E+03</rscale>
<asrwt>0</asrwt>
<pdfrwt beam="1">  1        2 0.21975932E+00 0.23894149E+03</pdfrwt>
<pdfrwt beam="2">  1       -2 0.40593440E-02 0.23894149E+03</pdfrwt>
<totfact> 0.40008768E+03</totfact>
</mgrwt>
</event>
<event>
 6      1 +1.8175624e-03 1.87342100e+02 7.81860800e-03 1.16088100e-01
        2 -1    0    0  501    0 +0.0000000000e+00 +0.0000000000e+00 +2.2467851415e+02 2.2467851417e+02 2.5500000000e-03 0.0000e+00 -1.0000e+00
       -2 -1    0    0    0  501 -0.0000000000e+00 -0.0000000000e+00 -3.9052545846e+01 3.9052545929e+01 2.5500000000e-03 0.0000e+00 1.0000e+00
      -13  1    1    2    0    0 +2.3685403068e+01 -5.7793061501e+01 +9.1066162732e+00 6.3118760287e+01 1.0566000000e-01 0.0000e+00 1.0000e+00
       13  1    1    2    0    0 +8.6021514521e+00 +3.7040630145e+01 +4.7237643068e+01 6.0641663712e+01 1.0566000000e-01 0.0000e+00 -1.0000e+00
      -13  1    1    2    0    0 -2.7411625749e+01 +1.7812659093e+00 +3.9730199680e+01 4.8301863992e+01 1.0566000000e-01 0.0000e+00 1.0000e+00
       13  1    1    2    0    0 -4.8759287709e+00 +1.8971165448e+01 +8.9551509284e+01 9.1668772104e+01 1.0566000000e-01 0.0000e+00 -1.0000e+00
<mgrwt>
<rscale>  0 0.18734213E+03</rscale>
<asrwt>0</asrwt>
<pdfrwt beam="1">  1        2 0.56169628E-01 0.18734213E+03</pdfrwt>
<pdfrwt beam="2">  1       -2 0.97631366E-02 0.18734213E+03</pdfrwt>
<totfact> 0.59339103E+03</totfact>
</mgrwt>
</event>
<event>
 6      1 +1.8175624e-03 3.14331500e+02 7.81860800e-03 1.07828800e-01
       -2 -1    0    0    0  501 -0.0000000000e+00 +0.0000000000e+00 +3.4003960146e+01 3.4003960242e+01 2.5500000000e-03 0.0000e+00 -1.0000e+00
        2 -1    0    0  501    0 +0.0000000000e+00 -0.0000000000e+00 -7.2641740495e+02 7.2641740496e+02 2.5500000000e-03 0.0000e+00 1.0000e+00
      -13  1    1    2    0    0 +6.0374801644e+01 -1.5969935317e+01 -3.1581891226e+02 3.2193439085e+02 1.0566000000e-01 0.0000e+00 -1.0000e+00
       13  1    1    2    0    0 +3.7824759490e+01 +5.1378224695e+01 -1.8033479393e+02 1.9128795955e+02 1.0566000000e-01 0.0000e+00 1.0000e+00
      -13  1    1    2    0    0 -1.0392028548e+02 -8.4215745621e+00 -9.1013227700e+01 1.3839713665e+02 1.0566000000e-01 0.0000e+00 -1.0000e+00
       13  1    1    2    0    0 +5.7207243501e+00 -2.6986714816e+01 -1.0524651092e+02 1.0880187815e+02 1.0566000000e-01 0.0000e+00 1.0000e+00
<mgrwt>
<rscale>  0 0.31433147E+03</rscale>
<asrwt>0</asrwt>
<pdfrwt beam="1">  1        2 0.18160430E+00 0.31433147E+03</pdfrwt>
<pdfrwt beam="2">  1       -2 0.85009924E-02 0.31433147E+03</pdfrwt>
<totfact> 0.17610437E+03</totfact>
</mgrwt>
</event>
<event>
 6      1 +1.8175624e-03 1.90483800e+02 7.81860800e-03 1.15802600e-01
        2 -1    0    0  501    0 +0.0000000000e+00 +0.0000000000e+00 +3.5078288203e+02 3.5078288203e+02 2.5500000000e-03 0.0000e+00 1.0000e+00
       -2 -1    0    0    0  501 -0.0000000000e+00 -0.0000000000e+00 -2.5859367930e+01 2.5859368055e+01 2.5500000000e-03 0.0000e+00 -1.0000e+00
      -13  1    1    2    0    0 +1.4449325607e+01 +6.1745280042e+01 +1.3419037277e+02 1.4841943918e+02 1.0566000000e-01 0.0000e+00 -1.0000e+00
       13  1    1    2    0    0 -1.3830592501e+01 -8.5629774368e+00 -9.6910068179e+00 1.8935064001e+01 1.0566000000e-01 0.0000e+00 1.0000e+00
      -13  1    1    2    0    0 +8.7849644113e+00 -3.0737706530e+01 +7.5072593801e+01 8.1595880450e+01 1.0566000000e-01 0.0000e+00 -1.0000e+00
       13  1    1    2    0    0 -9.4036975171e+00 -2.2444596076e+01 +1.2535155434e+02 1.2769186646e+02 1.0566000000e-01 0.0000e+00 1.0000e+00
<mgrwt>
<rscale>  0 0.19048384E+03</rscale>
<asrwt>0</asrwt>
<pdfrwt beam="1">  1        2 0.87695720E-01 0.19048384E+03</pdfrwt>
<pdfrwt beam="2">  1       -2 0.64648420E-02 0.19048384E+03</pdfrwt>
<totfact> 0.69114358E+03</totfact>
</mgrwt>
</event>
<event>
 6      1 +1.8175624e-03 2.51920600e+02 7.81860800e-03 1.11209700e-01
        2 -1    0    0  501    0 +0.0000000000e+00 +0.0000000000e+00 +4.5691771946e+01 4.5691772017e+01 2.5500000000e-03 0.0000e+00 1.0000e+00
       -2 -1    0    0    0  501 -0.0000000000e+00 -0.0000000000e+00 -3.4723965765e+02 3.4723965766e+02 2.5500000000e-03 0.0000e+00 -1.0000e+00
      -13  1    1    2    0    0 +5.2720747313e+01 +3.6189084833e+01 -1.0417497251e+02 1.2223568677e+02 1.0566000000e-01 0.0000e+00 -1.0000e+00
       13  1    1    2    0    0 -7.1166279929e+01 +1.9678385210e+00 -4.4800284829e+01 8.4116517237e+01 1.0566000000e-01 0.0000e+00 1.0000e+00
      -13  1    1    2    0    0 +5.3581403945e+01 -4.6819483316e+01 -9.8408784148e+01 1.2143858871e+02 1.0566000000e-01 0.0000e+00 1.0000e+00
       13  1    1    2    0    0 -3.5135871329e+01 +8.6625599616e+00 -5.4163844221e+01 6.5140636963e+01 1.0566000000e-01 0.0000e+00 -1.0000e+00
<mgrwt>
<rscale>  0 0.25192058E+03</rscale>
<asrwt>0</asrwt>
<pdfrwt beam="1">  1        2 0.11422944E-01 0.25192058E+03</pdfrwt>
<pdfrwt beam="2">  1       -2 0.86809907E-01 0.25192058E+03</pdfrwt>
<totfact> 0.64333537E+02</totfact>
</mgrwt>
</event>
<event>
 6      1 +1.8175624e-03 2.36028900e+02 7.81860800e-03 1.12246700e-01
       -2 -1    0    0    0  501 -0.0000000000e+00 +0.0000000000e+00 +3.0087771775e+01 3.0087771883e+01 2.5500000000e-03 0.0000e+00 1.0000e+00
        2 -1    0    0  501    0 +0.0000000000e+00 -0.0000000000e+00 -4.6289279090e+02 4.6289279091e+02 2.5500000000e-03 0.0000e+00 -1.0000e+00
      -13  1    1    2    0    0 +1.2512846322e+01 -3.1778276653e+00 -2.8205596658e+00 1.3215015422e+01 1.0566000000e-01 0.0000e+00 1.0000e+00
       13  1    1    2    0    0 -3.3637528202e+01 -7.3017523357e+01 -1.6064315799e+02 1.7963651465e+02 1.0566000000e-01 0.0000e+00 -1.0000e+00
      -13  1    1    2    0    0 -1.4206932627e+01 +8.2717425602e+01 -2.3830121897e+02 2.5264894926e+02 1.0566000000e-01 0.0000e+00 -1.0000e+00
       13  1    1    2    0    0 +3.5331614507e+01 -6.5220745798e+00 -3.1040082497e+01 4.7480083466e+01 1.0566000000e-01 0.0000e+00 1.0000e+00
<mgrwt>
<rscale>  0 0.23602892E+03</rscale>
<asrwt>0</asrwt>
<pdfrwt beam="1">  1        2 0.11572318E+00 0.23602892E+03</pdfrwt>
<pdfrwt beam="2">  1       -2 0.75219444E-02 0.23602892E+03</pdfrwt>
<totfact> 0.39679151E+03</totfact>
</mgrwt>
</event>
<event>
 6      1 +1.8175624e-03 2.81933500e+02 7.81860800e-03 1.09463800e-01
        2 -1    0    0  501    0 +0.0000000000e+00 +0.0000000000e+00 +3.9647393437e+02 3.9647393438e+02 2.5500000000e-03 0.0000e+00 1.0000e+00
       -2 -1    0    0    0  501 -0.0000000000e+00 -0.0000000000e+00 -5.0120890981e+01 5.0120891046e+01 2.5500000000e-03 0.0000e+00 -1.0000e+00
      -13  1    1    2    0    0 +3.9651553428e+01 -1.2099677340e+01 +5.5608848465e+00 4.1828010774e+01 1.0566000000e-01 0.0000e+00 1.0000e+00
       13  1    1    2    0    0 -3.5995929164e+01 +1.1722318339e+01 +5.7582541191e+01 6.8912117060e+01 1.0566000000e-01 0.0000e+00 -1.0000e+00
      -13  1    1    2    0    0 -4.7756281209e+01 -4.0683108608e+01 +2.0016088000e+01 6.5851595757e+01 1.0566000000e-01 0.0000e+00 -1.0000e+00
       13  1    1    2    0    0 +4.4100656945e+01 +4.1060467608e+01 +2.6319352936e+02 2.7000310184e+02 1.0566000000e-01 0.0000e+00 1.0000e+00
<mgrwt>
<rscale>  0 0.28193352E+03</rscale>
<asrwt>0</asrwt>
<pdfrwt beam="1">  1        2 0.99118484E-01 0.28193352E+03</pdfrwt>
<pdfrwt beam="2">  1       -2 0.12530223E-01 0.28193352E+03</pdfrwt>
<totfact> 0.21344116E+03</totfact>
</mgrwt>
</event>
<event>
 6      1 +1.8175624e-03 1.89644500e+02 7.81860800e-03 1.15878200e-01
        2 -1    0    0  501    0 +0.0000000000e+00 +0.0000000000e+00 +1.0357764248e+02 1.0357764252e+02 2.5500000000e-03 0.0000e+00 1.0000e+00
       -2 -1    0    0    0  501 -0.0000000000e+00 -0.0000000000e+00 -8.6806966936e+01 8.6806966974e+01 2.5500000000e-03 0.0000e+00 -1.0000e+00
      -13  1    1    2    0    0 +2.3246334969e+01 +3.7151816265e+01 +5.0517111357e+01 6.6877793364e+01 1.0566000000e-01 0.0000e+00 1.0000e+00
       13  1    1    2    0    0 +2.4730351753e+01 +8.3699890277e+00 +8.2660441073e+00 2.7385866124e+01 1.0566000000e-01 0.0000e+00 -1.0000e+00
      -13  1    1    2    0    0 -1.4389725833e+01 -1.9400506864e+01 +1.2316202442e+01 2.7113536891e+01 1.0566000000e-01 0.0000e+00 1.0000e+00
       13  1    1    2    0    0 -3.3586960889e+01 -2.6121298429e+01 -5.4328682358e+01 6.9007413111e+01 1.0566000000e-01 0.0000e+00 -1.0000e+00
<mgrwt>
<rscale>  0 0.18964452E+03</rscale>
<asrwt>0</asrwt>
<pdfrwt beam="1">  1        2 0.25894411E-01 0.18964452E+03</pdfrwt>
<pdfrwt beam="2">  1       -2 0.21701742E-01 0.18964452E+03</pdfrwt>
<totfact> 0.36889545E+03</totfact>
</mgrwt>
</event>
<event>
 6      1 +1.8175624e-03 2.62756600e+02 7.81860800e-03 1.10549800e-01
        1 -1    0    0  501    0 +0.0000000000e+00 +0.0000000000e+00 +1.6019606904e+02 1.6019606912e+02 5.0400000000e-03 0.0000e+00 -1.0000e+00
       -1 -1    0    0    0  501 -0.0000000000e+00 -0.0000000000e+00 -1.0774455985e+02 1.0774455997e+02 5.0400000000e-03 0.0000e+00 1.0000e+00
      -13  1    1    2    0    0 +3.0669522336e+01 -6.1050891371e+01 -3.6237214810e+01 7.7336781926e+01 1.0566000000e-01 0.0000e+00 1.0000e+00
       13  1    1    2    0    0 +2.3307614777e+01 +2.0741418592e+01 +5.3164983268e+01 6.1643961275e+01 1.0566000000e-01 0.0000e+00 -1.0000e+00
      -13  1    1    2    0    0 -6.8948931161e+01 -1.1175379705e+01 +2.5837085692e+01 7.4474226286e+01 1.0566000000e-01 0.0000e+00 1.0000e+00
       13  1    1    2    0    0 +1.4971794048e+01 +5.1484852484e+01 +9.6866550319e+00 5.4485659600e+01 1.0566000000e-01 0.0000e+00 -1.0000e+00
<mgrwt>
<rscale>  0 0.26275658E+03</rscale>
<asrwt>0</asrwt>
<pdfrwt beam="1">  1        1 0.40049017E-01 0.26275658E+03</pdfrwt>
<pdfrwt beam="2">  1       -1 0.26936140E-01 0.26275658E+03</pdfrwt>
<totfact> 0.12873235E+03</totfact>
</mgrwt>
</event>
<event>
 7      1 +1.8175624e-03 9.12901300e+01 7.81860800e-03 1.29975700e-01
        2 -1    0    0  501    0 +0.0000000000e+00 +0.0000000000e+00 +1.0446892932e+02 1.0446892936e+02 2.5500000000e-03 0.0000e+00 -1.0000e+00
       -2 -1    0    0    0  501 -0.0000000000e+00 -0.0000000000e+00 -1.9943459719e+01 1.9943459882e+01 2.5500000000e-03 0.0000e+00 1.0000e+00
       23  2    1    2    0    0 +1.7763568394e-15 +1.7763568394e-15 +8.4525469606e+01 1.2441238924e+02 9.1290128621e+01 0.0000e+00 0.0000e+00
      -13  1    3    3    0    0 +6.9326624099e+00 +1.5248936893e+01 +1.9400744080e+01 2.5631853607e+01 1.0566000000e-01 0.0000e+00 1.0000e+00
       13  1    3    3    0    0 -1.6533049421e+01 -4.7327632990e+00 +8.9108483664e+00 1.9368922382e+01 1.0566000000e-01 0.0000e+00 -1.0000e+00
      -13  1    3    3    0    0 -1.3497202734e+01 +1.5722861695e+01 +2.5673314217e+01 3.2992621727e+01 1.0566000000e-01 0.0000e+00 1.0000e+00
       13  1    3    3    0    0 +2.3097589746e+01 -2.6239035288e+01 +3.0540562943e+01 4.6418991521e+01 1.0566000000e-01 0.0000e+00 -1.0000e+00
<mgrwt>
<rscale>  0 0.91290129E+02</rscale>
<asrwt>0</asrwt>
<pdfrwt beam="1">  1        2 0.26117232E-01 0.91290129E+02</pdfrwt>
<pdfrwt beam="2">  1       -2 0.49858651E-02 0.91290129E+02</pdfrwt>
<totfact> 0.35337569E+04</totfact>
</mgrwt>
</event>
<event>
 6      1 +1.8175624e-03 7.90460200e+02 7.81860800e-03 9.57392900e-02
       -1 -1    0    0    0  501 -0.0000000000e+00 +0.0000000000e+00 +1.1575931736e+02 1.1575931747e+02 5.0400000000e-03 0.0000e+00 1.0000e+00
        1 -1    0    0  501    0 +0.0000000000e+00 -0.0000000000e+00 -1.3494104556e+03 1.3494104556e+03 5.0400000000e-03 0.0000e+00 -1.0000e+00
      -13  1    1    2    0    0 +6.5281253972e+01 -2.1722464969e+01 -1.4527626376e+02 1.6074424276e+02 1.0566000000e-01 0.0000e+00 -1.0000e+00
       13  1    1    2    0    0 +2.0840737945e+02 +2.4936952947e+02 -4.3010613677e+02 5.3908264495e+02 1.0566000000e-01 0.0000e+00 1.0000e+00
      -13  1    1    2    0    0 -2.5593673774e+02 -2.2846154570e+02 -6.6338914723e+02 7.4684902318e+02 1.0566000000e-01 0.0000e+00 -1.0000e+00
       13  1    1    2    0    0 -1.7751895679e+01 +8.1448119875e-01 +5.1204095491e+00 1.8493862166e+01 1.0566000000e-01 0.0000e+00 1.0000e+00
<mgrwt>
<rscale>  0 0.79046020E+03</rscale>
<asrwt>0</asrwt>
<pdfrwt beam="1">  1        1 0.33735256E+00 0.79046020E+03</pdfrwt>
<pdfrwt beam="2">  1       -1 0.28939834E-01 0.79046020E+03</pdfrwt>
<totfact> 0.24806522E+01</totfact>
</mgrwt>
</event>
<event>
 6      1 +1.8175624e-03 2.99884100e+02 7.81860800e-03 1.08529900e-01
       -1 -1    0    0    0  501 -0.0000000000e+00 +0.0000000000e+00 +6.1148276200e+01 6.1148276408e+01 5.0400000000e-03 0.0000e+00 1.0000e+00
        1 -1    0    0  501    0 +0.0000000000e+00 -0.0000000000e+00 -3.6767382630e+02 3.6767382634e+02 5.0400000000e-03 0.0000e+00 -1.0000e+00
      -13  1    1    2    0    0 +7.2732149299e+01 +1.0559593343e+01 -8.8706779794e+01 1.1519711150e+02 1.0566000000e-01 0.0000e+00 -1.0000e+00
       13  1    1    2    0    0 -1.1138827934e+01 -9.7879019932e+01 -1.5187641527e+02 1.8102716014e+02 1.0566000000e-01 0.0000e+00 -1.0000e+00
      -13  1    1    2    0    0 -3.4030549909e+01 +7.3164125906e+01 -6.1149622930e+01 1.0124403783e+02 1.0566000000e-01 0.0000e+00 1.0000e+00
       13  1    1    2    0    0 -2.7562771456e+01 +1.4155300683e+01 -4.7927321150e+00 3.1353793278e+01 1.0566000000e-01 0.0000e+00 1.0000e+00
<mgrwt>
<rscale>  0 0.29988412E+03</rscale>
<asrwt>0</asrwt>
<pdfrwt beam="1">  1        1 0.91918450E-01 0.29988412E+03</pdfrwt>
<pdfrwt beam="2">  1       -1 0.15287070E-01 0.29988412E+03</pdfrwt>
<totfact> 0.11046546E+03</totfact>
</mgrwt>
</event>
<event>
 6      1 +1.8175624e-03 7.21014900e+02 7.81860800e-03 9.68195400e-02
        2 -1    0    0  501    0 +0.0000000000e+00 +0.0000000000e+00 +5.2842498605e+02 5.2842498606e+02 2.5500000000e-03 0.0000e+00 1.0000e+00
       -2 -1    0    0    0  501 -0.0000000000e+00 -0.0000000000e+00 -2.4594904299e+02 2.4594904300e+02 2.5500000000e-03 0.0000e+00 -1.0000e+00
      -13  1    1    2    0    0 -5.0781698211e+01 +2.1275244873e+01 -4.6267341758e+01 7.1917278835e+01 1.0566000000e-01 0.0000e+00 -1.0000e+00
       13  1    1    2    0    0 -1.1583030485e+02 +9.5355440741e+01 +1.8224847429e+01 1.5113396649e+02 1.0566000000e-01 0.0000e+00 1.0000e+00
      -13  1    1    2    0    0 +2.4124720842e+01 +9.9237021140e+01 -4.5055851959e+01 1.1162450215e+02 1.0566000000e-01 0.0000e+00 -1.0000e+00
       13  1    1    2    0    0 +1.4248728222e+02 -2.1586770675e+02 +3.5557428935e+02 4.3969828158e+02 1.0566000000e-01 0.0000e+00 1.0000e+00
<mgrwt>
<rscale>  0 0.72101489E+03</rscale>
<asrwt>0</asrwt>
<pdfrwt beam="1">  1        2 0.13210625E+00 0.72101489E+03</pdfrwt>
<pdfrwt beam="2">  1       -2 0.61487261E-01 0.72101489E+03</pdfrwt>
<totfact> 0.78152163E+01</totfact>
</mgrwt>
</event>
<event>
 6      1 +1.8175624e-03 7.70957000e+02 7.81860800e-03 9.60303400e-02
        2 -1    0    0  501    0 +0.0000000000e+00 +0.0000000000e+00 +4.4593019205e+02 4.4593019205e+02 2.5500000000e-03 0.0000e+00 -1.0000e+00
       -2 -1    0    0    0  501 -0.0000000000e+00 -0.0000000000e+00 -3.3322179938e+02 3.3322179939e+02 2.5500000000e-03 0.0000e+00 1.0000e+00
      -13  1    1    2    0    0 -1.0326671979e+01 -3.1653568008e+01 +3.0279436202e+01 4.5004932425e+01 1.0566000000e-01 0.0000e+00 1.0000e+00
       13  1    1    2    0    0 +6.7971780128e+01 +3.0317776441e+01 +1.0978235092e+01 7.5232062791e+01 1.0566000000e-01 0.0000e+00 -1.0000e+00
      -13  1    1    2    0    0 +2.5081765240e+02 +5.8025362452e+01 -1.2772581656e+02 2.8738533857e+02 1.0566000000e-01 0.0000e+00 1.0000e+00
       13  1    1    2    0    0 -3.0846276055e+02 -5.6689570885e+01 +1.9917653793e+02 3.7152965766e+02 1.0566000000e-01 0.0000e+00 -1.0000e+00
<mgrwt>
<rscale>  0 0.77095697E+03</rscale>
<asrwt>0</asrwt>
<pdfrwt beam="1">  1        2 0.11148255E+00 0.77095697E+03</pdfrwt>
<pdfrwt beam="2">  1       -2 0.83305450E-01 0.77095697E+03</pdfrwt>
<totfact> 0.50019355E+01</totfact>
</mgrwt>
</event>
<event>
 6      1 +1.8175624e-03 5.74681900e+02 7.81860800e-03 9.95937200e-02
        2 -1    0    0  501    0 +0.0000000000e+00 +0.0000000000e+00 +5.1988463768e+02 5.1988463768e+02 2.5500000000e-03 0.0000e+00 -1.0000e+00
       -2 -1    0    0    0  501 -0.0000000000e+00 -0.0000000000e+00 -1.5881371867e+02 1.5881371869e+02 2.5500000000e-03 0.0000e+00 1.0000e+00
      -13  1    1    2    0    0 +3.6278068642e+01 +4.0901406959e+00 +4.5199279064e+01 5.8101751327e+01 1.0566000000e-01 0.0000e+00 1.0000e+00
       13  1    1    2    0    0 -2.1945369454e+01 -5.0319563185e+01 +2.7821830097e+02 2.8358260144e+02 1.0566000000e-01 0.0000e+00 -1.0000e+00
      -13  1    1    2    0    0 -3.5449828411e+01 -7.5611292871e+01 -1.1401370181e+02 1.4132548712e+02 1.0566000000e-01 0.0000e+00 1.0000e+00
       13  1    1    2    0    0 +2.1117129223e+01 +1.2184071536e+02 +1.5166704078e+02 1.9568851650e+02 1.0566000000e-01 0.0000e+00 -1.0000e+00
<mgrwt>
<rscale>  0 0.57468187E+03</rscale>
<asrwt>0</asrwt>
<pdfrwt beam="1">  1        2 0.12997116E+00 0.57468187E+03</pdfrwt>
<pdfrwt beam="2">  1       -2 0.39703430E-01 0.57468187E+03</pdfrwt>
<totfact> 0.19603130E+02</totfact>
</mgrwt>
</event>
<event>
 6      1 +1.8175624e-03 4.31466000e+02 7.81860800e-03 1.03339800e-01
        2 -1    0    0  501    0 +0.0000000000e+00 +0.0000000000e+00 +1.2404784340e+03 1.2404784340e+03 2.5500000000e-03 0.0000e+00 -1.0000e+00
       -2 -1    0    0    0  501 -0.0000000000e+00 -0.0000000000e+00 -3.7518367635e+01 3.7518367721e+01 2.5500000000e-03 0.0000e+00 1.0000e+00
      -13  1    1    2    0    0 -9.5041047257e+01 +2.6077750047e+00 +4.6371125208e+02 4.7335793817e+02 1.0566000000e-01 0.0000e+00 1.0000e+00
       13  1    1    2    0    0 -4.4813460552e+01 +1.2968168563e+01 +4.5886688222e+00 4.6877357948e+01 1.0566000000e-01 0.0000e+00 1.0000e+00
      -13  1    1    2    0    0 -1.5875086806e+01 +1.0992301936e+01 +3.0509413187e+01 3.6106571978e+01 1.0566000000e-01 0.0000e+00 -1.0000e+00
       13  1    1    2    0    0 +1.5572959461e+02 -2.6568245504e+01 +7.0415073226e+02 7.2165493362e+02 1.0566000000e-01 0.0000e+00 -1.0000e+00
<mgrwt>
<rscale>  0 0.43146599E+03</rscale>
<asrwt>0</asrwt>
<pdfrwt beam="1">  1        2 0.31011961E+00 0.43146599E+03</pdfrwt>
<pdfrwt beam="2">  1       -2 0.93795919E-02 0.43146599E+03</pdfrwt>
<totfact> 0.52487825E+02</totfact>
</mgrwt>
</event>
<event>
 6      1 +1.8175624e-03 3.74112200e+02 7.81860800e-03 1.05313200e-01
       -2 -1    0    0    0  501 -0.0000000000e+00 +0.0000000000e+00 +1.6072158921e+02 1.6072158923e+02 2.5500000000e-03 0.0000e+00 1.0000e+00
        2 -1    0    0  501    0 +0.0000000000e+00 -0.0000000000e+00 -2.1770555135e+02 2.1770555136e+02 2.5500000000e-03 0.0000e+00 -1.0000e+00
      -13  1    1    2    0    0 -5.9351159800e+01 -9.0368221916e+00 +7.5461897779e+01 9.6429940918e+01 1.0566000000e-01 0.0000e+00 1.0000e+00
       13  1    1    2    0    0 -1.7744785266e+01 +2.9001042353e+01 -1.4708846394e+02 1.5096676869e+02 1.0566000000e-01 0.0000e+00 -1.0000e+00
      -13  1    1    2    0    0 +4.9677531772e+01 -1.6572812942e+01 +5.8926995232e+01 7.8834746292e+01 1.0566000000e-01 0.0000e+00 1.0000e+00
       13  1    1    2    0    0 +2.7418413294e+01 -3.3914072196e+00 -4.4284391216e+01 5.2195684687e+01 1.0566000000e-01 0.0000e+00 -1.0000e+00
<mgrwt>
<rscale>  0 0.37411219E+03</rscale>
<asrwt>0</asrwt>
<pdfrwt beam="1">  1        2 0.54426388E-01 0.37411219E+03</pdfrwt>
<pdfrwt beam="2">  1       -2 0.40180398E-01 0.37411219E+03</pdfrwt>
<totfact> 0.54122373E+02</totfact>
</mgrwt>
</event>
<event>
 7      1 +1.8175624e-03 9.15725400e+01 7.81860800e-03 1.29908800e-01
        1 -1    0    0  501    0 +0.0000000000e+00 +0.0000000000e+00 +5.7861815822e+00 5.7861837772e+00 5.0400000000e-03 0.0000e+00 -1.0000e+00
       -1 -1    0    0    0  501 -0.0000000000e+00 -0.0000000000e+00 -3.6230837733e+02 3.6230837736e+02 5.0400000000e-03 0.0000e+00 1.0000e+00
       23  2    1    2    0    0 +0.0000000000e+00 +5.3290705182e-15 -3.5652219574e+02 3.6809456114e+02 9.1572538905e+01 0.0000e+00 0.0000e+00
      -13  1    3    3    0    0 -1.5672146030e+01 +2.1268687763e+01 -1.1054017934e+02 1.1365348940e+02 1.0566000000e-01 0.0000e+00 1.0000e+00
       13  1    3    3    0    0 +1.0649107828e+01 +1.3291646914e+01 -4.4572893595e+01 4.7716091444e+01 1.0566000000e-01 0.0000e+00 1.0000e+00
      -13  1    3    3    0    0 +1.3524947459e+01 -3.9082456529e+00 -7.9336174234e+01 8.0575668126e+01 1.0566000000e-01 0.0000e+00 -1.0000e+00
       13  1    3    3    0    0 -8.5019092568e+00 -3.0652089024e+01 -1.2207294858e+02 1.2614931217e+02 1.0566000000e-01 0.0000e+00 -1.0000e+00
<mgrwt>
<rscale>  0 0.91572539E+02</rscale>
<asrwt>0</asrwt>
<pdfrwt beam="1">  1        1 0.14465469E-02 0.91572539E+02</pdfrwt>
<pdfrwt beam="2">  1       -1 0.90577018E-01 0.91572539E+02</pdfrwt>
<totfact> 0.10861988E+04</totfact>
</mgrwt>
</event>
<event>
 6      1 +1.8175624e-03 3.62323200e+02 7.81860800e-03 1.05766800e-01
       -4 -1    0    0    0  501 -0.0000000000e+00 +0.0000000000e+00 +2.1446157915e+02 2.1446533946e+02 1.2700000000e+00 0.0000e+00 1.0000e+00
        4 -1    0    0  501    0 +0.0000000000e+00 -0.0000000000e+00 -1.5302445729e+02 1.5302972727e+02 1.2700000000e+00 0.0000e+00 -1.0000e+00
      -13  1    1    2    0    0 +4.0576598206e+01 +2.8383452667e+01 -5.2532710493e+01 7.2192641890e+01 1.0566000000e-01 0.0000e+00 1.0000e+00
       13  1    1    2    0    0 -2.6429339987e+01 -1.1948680330e+02 +2.4978682668e+01 1.2489816622e+02 1.0566000000e-01 0.0000e+00 -1.0000e+00
      -13  1    1    2    0    0 +5.2955829329e+00 +5.6383745759e+01 +1.1123112648e+02 1.2481804616e+02 1.0566000000e-01 0.0000e+00 1.0000e+00
       13  1    1    2    0    0 -1.9442841151e+01 +3.4719604871e+01 -2.2239976795e+01 4.5586212458e+01 1.0566000000e-01 0.0000e+00 -1.0000e+00
<mgrwt>
<rscale>  0 0.36232320E+03</rscale>
<asrwt>0</asrwt>
<pdfrwt beam="1">  1        4 0.38257243E-01 0.36232320E+03</pdfrwt>
<pdfrwt beam="2">  1       -4 0.53616523E-01 0.36232320E+03</pdfrwt>
<totfact> 0.42083959E+01</totfact>
</mgrwt>
</event>
<event>
 6      1 +1.8175624e-03 3.24446400e+02 7.81860800e-03 1.07362100e-01
        2 -1    0    0  501    0 +0.0000000000e+00 +0.0000000000e+00 +3.6829191787e+02 3.6829191788e+02 2.5500000000e-03 0.0000e+00 -1.0000e+00
       -2 -1    0    0    0  501 -0.0000000000e+00 -0.0000000000e+00 -7.1455202094e+01 7.1455202140e+01 2.5500000000e-03 0.0000e+00 1.0000e+00
      -13  1    1    2    0    0 -5.0515967932e+01 +5.4434349873e+00 +1.3870862362e+02 1.4772131678e+02 1.0566000000e-01 0.0000e+00 1.0000e+00
       13  1    1    2    0    0 +9.1292848709e+01 -3.9921192616e-01 +1.6299337227e+02 1.8681914828e+02 1.0566000000e-01 0.0000e+00 -1.0000e+00
      -13  1    1    2    0    0 -6.2569418054e+01 +2.1494687254e+01 -1.7799976871e+01 6.8511342100e+01 1.0566000000e-01 0.0000e+00 1.0000e+00
       13  1    1    2    0    0 +2.1792537276e+01 -2.6538910315e+01 +1.2934696755e+01 3.6695312859e+01 1.0566000000e-01 0.0000e+00 -1.0000e+00
<mgrwt>
<rscale>  0 0.32444644E+03</rscale>
<asrwt>0</asrwt>
<pdfrwt beam="1">  1        2 0.92072978E-01 0.32444644E+03</pdfrwt>
<pdfrwt beam="2">  1       -2 0.17863801E-01 0.32444644E+03</pdfrwt>
<totfact> 0.12930515E+03</totfact>
</mgrwt>
</event>
<event>
 6      1 +1.8175624e-03 3.65245600e+02 7.81860800e-03 1.05652600e-01
        2 -1    0    0  501    0 +0.0000000000e+00 +0.0000000000e+00 +1.2943308363e+02 1.2943308365e+02 2.5500000000e-03 0.0000e+00 1.0000e+00
       -2 -1    0    0    0  501 -0.0000000000e+00 -0.0000000000e+00 -2.5767048683e+02 2.5767048684e+02 2.5500000000e-03 0.0000e+00 -1.0000e+00
      -13  1    1    2    0    0 -6.9841406424e+00 -1.0076885900e+01 +1.5451076751e+01 1.9724826660e+01 1.0566000000e-01 0.0000e+00 1.0000e+00
       13  1    1    2    0    0 -1.3497323254e+02 +3.5823484975e+01 -8.5555271863e+00 1.3990819771e+02 1.0566000000e-01 0.0000e+00 1.0000e+00
      -13  1    1    2    0    0 +1.4080570773e+01 -2.6645253220e+01 -8.4879179930e+01 9.0070629742e+01 1.0566000000e-01 0.0000e+00 -1.0000e+00
       13  1    1    2    0    0 +1.2787680241e+02 +8.9865414490e-01 -5.0253772836e+01 1.3739991638e+02 1.0566000000e-01 0.0000e+00 -1.0000e+00
<mgrwt>
<rscale>  0 0.36524559E+03</rscale>
<asrwt>0</asrwt>
<pdfrwt beam="1">  1        2 0.32358271E-01 0.36524559E+03</pdfrwt>
<pdfrwt beam="2">  1       -2 0.64417621E-01 0.36524559E+03</pdfrwt>
<totfact> 0.36858180E+02</totfact>
</mgrwt>
</event>
<event>
 6      1 +1.8175624e-03 2.30442500e+02 7.81860800e-03 1.12632900e-01
        2 -1    0    0  501    0 +0.0000000000e+00 +0.0000000000e+00 +3.2893121227e+02 3.2893121228e+02 2.5500000000e-03 0.0000e+00 -1.0000e+00
       -2 -1    0    0    0  501 -0.0000000000e+00 -0.0000000000e+00 -4.0360835417e+01 4.0360835498e+01 2.5500000000e-03 0.0000e+00 1.0000e+00
      -13  1    1    2    0    0 -7.3914191759e+00 +8.9252346181e+01 +1.1656694980e+02 1.4699822899e+02 1.0566000000e-01 0.0000e+00 1.0000e+00
       13  1    1    2    0    0 -7.4647819300e+00 -1.4156253847e+01 +3.0470946763e+01 3.4418196538e+01 1.0566000000e-01 0.0000e+00 -1.0000e+00
      -13  1    1    2    0    0 -3.9260712585e+01 -2.9045412318e+01 +8.0738499207e+01 9.4359715704e+01 1.0566000000e-01 0.0000e+00 -1.0000e+00
       13  1    1    2    0    0 +5.4116913690e+01 -4.6050680015e+01 +6.0793981083e+01 9.3515906546e+01 1.0566000000e-01 0.0000e+00 1.0000e+00
<mgrwt>
<rscale>  0 0.23044252E+03</rscale>
<asrwt>0</asrwt>
<pdfrwt beam="1">  1        2 0.82232801E-01 0.23044252E+03</pdfrwt>
<pdfrwt beam="2">  1       -2 0.10090209E-01 0.23044252E+03</pdfrwt>
<totfact> 0.37385795E+03</totfact>
</mgrwt>
</event>
<event>
 6      1 +1.8175624e-03 3.69439400e+02 7.81860800e-03 1.05490800e-01
       -2 -1    0    0    0  501 -0.0000000000e+00 +0.0000000000e+00 +3.7078923676e+01 3.7078923764e+01 2.5500000000e-03 0.0000e+00 1.0000e+00
        2 -1    0    0  501    0 +0.0000000000e+00 -0.0000000000e+00 -9.2023615349e+02 9.2023615350e+02 2.5500000000e-03 0.0000e+00 -1.0000e+00
      -13  1    1    2    0    0 +3.2468852380e+01 -1.3759066721e+00 -1.6765099979e+02 1.7077174353e+02 1.0566000000e-01 0.0000e+00 -1.0000e+00
       13  1    1    2    0    0 +6.9438032426e+01 -2.7278019529e+01 -3.9721503536e+01 8.4519463461e+01 1.0566000000e-01 0.0000e+00 1.0000e+00
      -13  1    1    2    0    0 -7.5139567232e+01 +9.3256559713e+01 -4.4949046298e+02 4.6517139633e+02 1.0566000000e-01 0.0000e+00 1.0000e+00
       13  1    1    2    0    0 -2.6767317574e+01 -6.4602633512e+01 -2.2629426351e+02 2.3685247394e+02 1.0566000000e-01 0.0000e+00 -1.0000e+00
<mgrwt>
<rscale>  0 0.36943939E+03</rscale>
<asrwt>0</asrwt>
<pdfrwt beam="1">  1        2 0.23005896E+00 0.36943939E+03</pdfrwt>
<pdfrwt beam="2">  1       -2 0.92697340E-02 0.36943939E+03</pdfrwt>
<totfact> 0.10222847E+03</totfact>
</mgrwt>
</event>
<event>
 6      1 +1.8175624e-03 7.22256800e+02 7.81860800e-03 9.67990900e-02
       -1 -1    0    0    0  501 -0.0000000000e+00 +0.0000000000e+00 +1.1990487720e+02 1.1990487731e+02 5.0400000000e-03 0.0000e+00 1.0000e+00
        1 -1    0    0  501    0 +0.0000000000e+00 -0.0000000000e+00 -1.0876431261e+03 1.0876431261e+03 5.0400000000e-03 0.0000e+00 -1.0000e+00
      -13  1    1    2    0    0 +8.4758510047e+01 -3.3364818030e+01 -3.0461528622e+01 9.6047550711e+01 1.0566000000e-01 0.0000e+00 -1.0000e+00
       13  1    1    2    0    0 +4.5893166821e+01 +1.0104295224e+02 -5.8183397950e+01 1.2530434916e+02 1.0566000000e-01 0.0000e+00 1.0000e+00
      -13  1    1    2    0    0 +2.5300701593e+01 -6.9512305423e+01 +1.7601527921e+01 7.6038878578e+01 1.0566000000e-01 0.0000e+00 1.0000e+00
       13  1    1    2    0    0 -1.5595237846e+02 +1.8341712158e+00 -8.9669485028e+02 9.1015722499e+02 1.0566000000e-01 0.0000e+00 -1.0000e+00
<mgrwt>
<rscale>  0 0.72225678E+03</rscale>
<asrwt>0</asrwt>
<pdfrwt beam="1">  1        1 0.27191075E+00 0.72225678E+03</pdfrwt>
<pdfrwt beam="2">  1       -1 0.29976223E-01 0.72225678E+03</pdfrwt>
<totfact> 0.45331893E+01</totfact>
</mgrwt>
</event>
<event>
 6      1 +1.8175624e-03 5.43204600e+02 7.81860800e-03 1.00307900e-01
        1 -1    0    0  501    0 +0.0000000000e+00 +0.0000000000e+00 +3.6802891656e+02 3.6802891660e+02 5.0400000000e-03 0.0000e+00 -1.0000e+00
       -1 -1    0    0    0  501 -0.0000000000e+00 -0.0000000000e+00 -2.0044024864e+02 2.0044024870e+02 5.0400000000e-03 0.0000e+00 1.0000e+00
      -13  1    1    2    0    0 +1.2478252279e+02 +7.9491416942e+01 +1.5795219926e+02 2.1642197619e+02 1.0566000000e-01 0.0000e+00 -1.0000e+00
       13  1    1    2    0    0 -2.8980240244e+01 +1.1713380065e+01 +1.2561828692e+01 3.3687806418e+01 1.0566000000e-01 0.0000e+00 1.0000e+00
      -13  1    1    2    0    0 -8.7719936923e+01 -6.1197742939e+01 -1.4091728836e+02 1.7691140268e+02 1.0566000000e-01 0.0000e+00 1.0000e+00
       13  1    1    2    0    0 -8.0823456210e+00 -3.0007054068e+01 +1.3799192833e+02 1.4144798002e+02 1.0566000000e-01 0.0000e+00 -1.0000e+00
<mgrwt>
<rscale>  0 0.54320459E+03</rscale>
<asrwt>0</asrwt>
<pdfrwt beam="1">  1        1 0.92007228E-01 0.54320459E+03</pdfrwt>
<pdfrwt beam="2">  1       -1 0.50110063E-01 0.54320459E+03</pdfrwt>
<totfact> 0.14180053E+02</totfact>
</mgrwt>
</event>
<event>
 6      1 +1.8175624e-03 3.39638400e+02 7.81860800e-03 1.06695000e-01
       -1 -1    0    0    0  501 -0.0000000000e+00 +0.0000000000e+00 +4.0128575298e+01 4.0128575615e+01 5.0400000000e-03 0.0000e+00 1.0000e+00
        1 -1    0    0  501    0 +0.0000000000e+00 -0.0000000000e+00 -7.1865391531e+02 7.1865391532e+02 5.0400000000e-03 0.0000e+00 -1.0000e+00
      -13  1    1    2    0    0 -1.0483891511e+02 -7.2855433040e+01 -2.4499286995e+02 2.7626188614e+02 1.0566000000e-01 0.0000e+00 1.0000e+00
       13  1    1    2    0    0 +5.6925201583e+00 +1.7097672324e+01 -1.0122434904e+02 1.0281592867e+02 1.0566000000e-01 0.0000e+00 -1.0000e+00
      -13  1    1    2    0    0 +4.1206809747e+00 +8.1552586323e+01 -1.1409536708e+02 1.4030526826e+02 1.0566000000e-01 0.0000e+00 1.0000e+00
       13  1    1    2    0    0 +9.5025713976e+01 -2.5794825607e+01 -2.1821275394e+02 2.3939940787e+02 1.0566000000e-01 0.0000e+00 -1.0000e+00
<mgrwt>
<rscale>  0 0.33963838E+03</rscale>
<asrwt>0</asrwt>
<pdfrwt beam="1">  1        1 0.17966344E+00 0.33963838E+03</pdfrwt>
<pdfrwt beam="2">  1       -1 0.10032146E-01 0.33963838E+03</pdfrwt>
<totfact> 0.72999665E+02</totfact>
</mgrwt>
</event>
<event>
 6      1 +1.8175624e-03 3.80810900e+02 7.81860800e-03 1.05063400e-01
        2 -1    0    0  501    0 +0.0000000000e+00 +0.0000000000e+00 +8.5923447286e+02 8.5923447286e+02 2.5500000000e-03 0.0000e+00 1.0000e+00
       -2 -1    0    0    0  501 -0.0000000000e+00 -0.0000000000e+00 -4.2193655853e+01 4.2193655930e+01 2.5500000000e-03 0.0000e+00 -1.0000e+00
      -13  1    1    2    0    0 +9.3506336280e+01 +1.3361570487e+02 +2.6610014238e+02 3.1209916445e+02 1.0566000000e-01 0.0000e+00 -1.0000e+00
       13  1    1    2    0    0 -8.7459414050e+01 -1.3728215324e+02 +4.4075283396e+02 4.6984956157e+02 1.0566000000e-01 0.0000e+00 1.0000e+00
      -13  1    1    2    0    0 +1.4758394878e+01 -5.5320949613e+00 +1.5532124494e+01 2.2128541511e+01 1.0566000000e-01 0.0000e+00 -1.0000e+00
       13  1    1    2    0    0 -2.0805317109e+01 +9.1985433343e+00 +9.4655716175e+01 9.7350861260e+01 1.0566000000e-01 0.0000e+00 1.0000e+00
<mgrwt>
<rscale>  0 0.38081094E+03</rscale>
<asrwt>0</asrwt>
<pdfrwt beam="1">  1        2 0.21480861E+00 0.38081094E+03</pdfrwt>
<pdfrwt beam="2">  1       -2 0.10548414E-01 0.38081094E+03</pdfrwt>
<totfact> 0.94059899E+02</totfact>
</mgrwt>
</event>
<event>
 6      1 +1.8175624e-03 2.18119100e+02 7.81860800e-03 1.13529300e-01
       -1 -1    0    0    0  501 -0.0000000000e+00 +0.0000000000e+00 +2.5367745942e+01 2.5367746442e+01 5.0400000000e-03 0.0000e+00 1.0000e+00
        1 -1    0    0  501    0 +0.0000000000e+00 -0.0000000000e+00 -4.6886266767e+02 4.6886266769e+02 5.0400000000e-03 0.0000e+00 -1.0000e+00
      -13  1    1    2    0    0 -5.9581976990e+00 -4.5773296848e+01 -4.5942775895e+01 6.5126374420e+01 1.0566000000e-01 0.0000e+00 1.0000e+00
       13  1    1    2    0    0 -7.9818238528e+00 -3.4200756114e+01 -1.6806211963e+02 1.7169242397e+02 1.0566000000e-01 0.0000e+00 -1.0000e+00
      -13  1    1    2    0    0 +1.7150209427e+01 +1.2071053028e+01 -3.3042772622e+00 2.1231331019e+01 1.0566000000e-01 0.0000e+00 1.0000e+00
       13  1    1    2    0    0 -3.2101878752e+00 +6.7902999934e+01 -2.2618574894e+02 2.3618028472e+02 1.0566000000e-01 0.0000e+00 -1.0000e+00
<mgrwt>
<rscale>  0 0.21811913E+03</rscale>
<asrwt>0</asrwt>
<pdfrwt beam="1">  1        1 0.11721564E+00 0.21811913E+03</pdfrwt>
<pdfrwt beam="2">  1       -1 0.63419381E-02 0.21811913E+03</pdfrwt>
<totfact> 0.30291094E+03</totfact>
</mgrwt>
</event>
<event>
 6      1 +1.8175624e-03 3.44731700e+02 7.81860800e-03 1.06479800e-01
        1 -1    0    0  501    0 +0.0000000000e+00 +0.0000000000e+00 +2.8509969308e+02 2.8509969312e+02 5.0400000000e-03 0.0000e+00 -1.0000e+00
       -1 -1    0    0    0  501 -0.0000000000e+00 -0.0000000000e+00 -1.0420909644e+02 1.0420909656e+02 5.0400000000e-03 0.0000e+00 1.0000e+00
      -13  1    1    2    0    0 +6.5597948407e+01 -9.4578942231e+01 -2.7569793835e+01 1.1835696788e+02 1.0566000000e-01 0.0000e+00 1.0000e+00
       13  1    1    2    0    0 -3.2539944429e+01 +1.8011744571e+01 +8.9742555752e+01 9.7144265929e+01 1.0566000000e-01 0.0000e+00 -1.0000e+00
      -13  1    1    2    0    0 +3.0198892125e+01 +4.8380884410e+01 +4.4862223094e+01 7.2562478505e+01 1.0566000000e-01 0.0000e+00 1.0000e+00
       13  1    1    2    0    0 -6.3256896103e+01 +2.8186313250e+01 +7.3855611627e+01 1.0124507737e+02 1.0566000000e-01 0.0000e+00 -1.0000e+00
<mgrwt>
<rscale>  0 0.34473167E+03</rscale>
<asrwt>0</asrwt>
<pdfrwt beam="1">  1        1 0.71274923E-01 0.34473167E+03</pdfrwt>
<pdfrwt beam="2">  1       -1 0.26052274E-01 0.34473167E+03</pdfrwt>
<totfact> 0.65078943E+02</totfact>
</mgrwt>
</event>
<event>
 6      1 +1.8175624e-03 1.72028200e+02 7.81860800e-03 1.17574900e-01
        2 -1    0    0  501    0 +0.0000000000e+00 +0.0000000000e+00 +2.6577648464e+02 2.6577648465e+02 2.5500000000e-03 0.0000e+00 -1.0000e+00
       -2 -1    0    0    0  501 -0.0000000000e+00 -0.0000000000e+00 -2.7837021234e+01 2.7837021351e+01 2.5500000000e-03 0.0000e+00 1.0000e+00
      -13  1    1    2    0    0 +4.2108766325e+00 -2.0268359124e+01 +2.8037037488e+00 2.0890423220e+01 1.0566000000e-01 0.0000e+00 1.0000e+00
       13  1    1    2    0    0 -1.8351921944e+01 +5.3554890577e+01 +1.3740819557e+02 1.4861340019e+02 1.0566000000e-01 0.0000e+00 -1.0000e+00
      -13  1    1    2    0    0 -6.0821682976e+00 -3.0739100239e+01 +8.3379929605e+00 3.2425581650e+01 1.0566000000e-01 0.0000e+00 1.0000e+00
       13  1    1    2    0    0 +2.0223213609e+01 -2.5474312146e+00 +8.9389571128e+01 9.1684100939e+01 1.0566000000e-01 0.0000e+00 -1.0000e+00
<mgrwt>
<rscale>  0 0.17202820E+03</rscale>
<asrwt>0</asrwt>
<pdfrwt beam="1">  1        2 0.66444120E-01 0.17202820E+03</pdfrwt>
<pdfrwt beam="2">  1       -2 0.69592555E-02 0.17202820E+03</pdfrwt>
<totfact> 0.83491827E+03</totfact>
</mgrwt>
</event>
<event>
 6      1 +1.8175624e-03 3.03264600e+02 7.81860800e-03 1.08362000e-01
        2 -1    0    0  501    0 +0.0000000000e+00 +0.0000000000e+00 +3.3428861878e+02 3.3428861879e+02 2.5500000000e-03 0.0000e+00 1.0000e+00
       -2 -1    0    0    0  501 -0.0000000000e+00 -0.0000000000e+00 -6.8779971173e+01 6.8779971220e+01 2.5500000000e-03 0.0000e+00 -1.0000e+00
      -13  1    1    2    0    0 +7.0743761284e+01 -2.6329428502e+01 +2.0486229412e+02 2.1832656568e+02 1.0566000000e-01 0.0000e+00 1.0000e+00
       13  1    1    2    0    0 -1.9145573524e+01 +4.1418781102e+01 -1.9051294839e+01 4.9447258899e+01 1.0566000000e-01 0.0000e+00 -1.0000e+00
      -13  1    1    2    0    0 +2.4227275506e+01 -1.1190267691e+01 +4.3848715199e+01 5.1331315570e+01 1.0566000000e-01 0.0000e+00 1.0000e+00
       13  1    1    2    0    0 -7.5825463266e+01 -3.8990849094e+00 +3.5848933130e+01 8.3963449865e+01 1.0566000000e-01 0.0000e+00 -1.0000e+00
<mgrwt>
<rscale>  0 0.30326465E+03</rscale>
<asrwt>0</asrwt>
<pdfrwt beam="1">  1        2 0.83572153E-01 0.30326465E+03</pdfrwt>
<pdfrwt beam="2">  1       -2 0.17194993E-01 0.30326465E+03</pdfrwt>
<totfact> 0.15426205E+03</totfact>
</mgrwt>
</event>
<event>
 6      1 +1.8175624e-03 2.71286200e+02 7.81860800e-03 1.10054600e-01
        2 -1    0    0  501    0 +0.0000000000e+00 +0.0000000000e+00 +4.5618661693e+02 4.5618661693e+02 2.5500000000e-03 0.0000e+00 -1.0000e+00
       -2 -1    0    0    0  501 -0.0000000000e+00 -0.0000000000e+00 -4.0332280275e+01 4.0332280356e+01 2.5500000000e-03 0.0000e+00 1.0000e+00
      -13  1    1    2    0    0 +2.6859296377e+01 +3.0998799574e+01 +1.0458600177e+02 1.1234140068e+02 1.0566000000e-01 0.0000e+00 1.0000e+00
       13  1    1    2    0    0 -2.4132315652e+01 +6.2458115279e+01 +3.3311078714e+01 7.4786522529e+01 1.0566000000e-01 0.0000e+00 -1.0000e+00
      -13  1    1    2    0    0 +3.1670425549e+01 -1.8292923576e+01 +2.7828334447e+01 4.5957309207e+01 1.0566000000e-01 0.0000e+00 1.0000e+00
       13  1    1    2    0    0 -3.4397406273e+01 -7.5163991276e+01 +2.5012892172e+02 2.6343366487e+02 1.0566000000e-01 0.0000e+00 -1.0000e+00
<mgrwt>
<rscale>  0 0.27128617E+03</rscale>
<asrwt>0</asrwt>
<pdfrwt beam="1">  1        2 0.11404665E+00 0.27128617E+03</pdfrwt>
<pdfrwt beam="2">  1       -2 0.10083070E-01 0.27128617E+03</pdfrwt>
<totfact> 0.25533817E+03</totfact>
</mgrwt>
</event>
<event>
 7      1 +1.8175624e-03 9.49835900e+01 7.81860800e-03 1.29121300e-01
        1 -1    0    0  501    0 +0.0000000000e+00 +0.0000000000e+00 +1.5494915841e+02 1.5494915849e+02 5.0400000000e-03 0.0000e+00 -1.0000e+00
       -1 -1    0    0    0  501 -0.0000000000e+00 -0.0000000000e+00 -1.4556196704e+01 1.4556197576e+01 5.0400000000e-03 0.0000e+00 1.0000e+00
       23  2    1    2    0    0 +2.6645352591e-15 +0.0000000000e+00 +1.4039296171e+02 1.6950535607e+02 9.4983588263e+01 0.0000e+00 0.0000e+00
      -13  1    3    3    0    0 +9.4413587642e+00 +3.8299833632e+00 +8.5300776904e-01 1.0224813649e+01 1.0566000000e-01 0.0000e+00 -1.0000e+00
       13  1    3    3    0    0 -1.8938878662e+00 -2.1598735017e+01 +2.9031660778e+01 3.6234523001e+01 1.0566000000e-01 0.0000e+00 1.0000e+00
      -13  1    3    3    0    0 +2.1721482816e+01 +9.1900599002e+00 +4.6271714020e+01 5.1936140587e+01 1.0566000000e-01 0.0000e+00 1.0000e+00
       13  1    3    3    0    0 -2.9268953714e+01 +8.5786917532e+00 +6.4236579141e+01 7.1109878832e+01 1.0566000000e-01 0.0000e+00 -1.0000e+00
<mgrwt>
<rscale>  0 0.94983588E+02</rscale>
<asrwt>0</asrwt>
<pdfrwt beam="1">  1        1 0.38737290E-01 0.94983588E+02</pdfrwt>
<pdfrwt beam="2">  1       -1 0.36390493E-02 0.94983588E+02</pdfrwt>
<totfact> 0.27608390E+04</totfact>
</mgrwt>
</event>
<event>
 6      1 +1.8175624e-03 2.23763300e+02 7.81860800e-03 1.13110800e-01
        4 -1    0    0  501    0 +0.0000000000e+00 +0.0000000000e+00 +6.3343596033e+01 6.3356326112e+01 1.2700000000e+00 0.0000e+00 -1.0000e+00
       -4 -1    0    0    0  501 -0.0000000000e+00 -0.0000000000e+00 -1.9757810851e+02 1.9758219014e+02 1.2700000000e+00 0.0000e+00 1.0000e+00
      -13  1    1    2    0    0 +2.3254596089e+01 -3.5773229043e+01 -5.9441586141e+01 7.3169757977e+01 1.0566000000e-01 0.0000e+00 1.0000e+00
       13  1    1    2    0    0 -6.2530818416e-01 +5.5045636688e+01 -3.6432844667e+01 6.6013456684e+01 1.0566000000e-01 0.0000e+00 -1.0000e+00
      -13  1    1    2    0    0 +1.7633947131e+01 -3.2648646233e+01 +2.5544408561e+01 4.5049063975e+01 1.0566000000e-01 0.0000e+00 -1.0000e+00
       13  1    1    2    0    0 -4.0263235035e+01 +1.3376238588e+01 -6.3904490227e+01 7.6706237618e+01 1.0566000000e-01 0.0000e+00 1.0000e+00
<mgrwt>
<rscale>  0 0.22376328E+03</rscale>
<asrwt>0</asrwt>
<pdfrwt beam="1">  1        4 0.15838001E-01 0.22376328E+03</pdfrwt>
<pdfrwt beam="2">  1       -4 0.49396627E-01 0.22376328E+03</pdfrwt>
<totfact> 0.24627032E+02</totfact>
</mgrwt>
</event>
<event>
 6      1 +1.8175624e-03 2.55604000e+02 7.81860800e-03 1.10981400e-01
       -2 -1    0    0    0  501 -0.0000000000e+00 +0.0000000000e+00 +3.9206429047e+01 3.9206429130e+01 2.5500000000e-03 0.0000e+00 1.0000e+00
        2 -1    0    0  501    0 +0.0000000000e+00 -0.0000000000e+00 -4.1659893896e+02 4.1659893897e+02 2.5500000000e-03 0.0000e+00 -1.0000e+00
      -13  1    1    2    0    0 +2.2657787266e+01 -4.7362774734e+01 -1.7474417171e+02 1.8246135061e+02 1.0566000000e-01 0.0000e+00 1.0000e+00
       13  1    1    2    0    0 +1.3116550701e+01 +1.9282530847e+01 +2.1906283919e+00 2.3423704125e+01 1.0566000000e-01 0.0000e+00 1.0000e+00
      -13  1    1    2    0    0 -4.1465261797e+01 -4.6500701319e+01 -5.7968125361e+01 8.5099928795e+01 1.0566000000e-01 0.0000e+00 -1.0000e+00
       13  1    1    2    0    0 +5.6909238301e+00 +7.4580945205e+01 -1.4687084123e+02 1.6482038457e+02 1.0566000000e-01 0.0000e+00 -1.0000e+00
<mgrwt>
<rscale>  0 0.25560404E+03</rscale>
<asrwt>0</asrwt>
<pdfrwt beam="1">  1        2 0.10414972E+00 0.25560404E+03</pdfrwt>
<pdfrwt beam="2">  1       -2 0.98016085E-02 0.25560404E+03</pdfrwt>
<totfact> 0.29814472E+03</totfact>
</mgrwt>
</event>
<event>
 6      1 +1.8175624e-03 4.08887400e+02 7.81860800e-03 1.04074500e-01
       -2 -1    0    0    0  501 -0.0000000000e+00 +0.0000000000e+00 +4.9228903531e+01 4.9228903597e+01 2.5500000000e-03 0.0000e+00 1.0000e+00
        2 -1    0    0  501    0 +0.0000000000e+00 -0.0000000000e+00 -8.4903834305e+02 8.4903834306e+02 2.5500000000e-03 0.0000e+00 -1.0000e+00
      -13  1    1    2    0    0 +5.6288263995e+00 +1.7242453012e+01 -6.9346206790e+01 7.1679100390e+01 1.0566000000e-01 0.0000e+00 1.0000e+00
       13  1    1    2    0    0 -5.3883625607e+01 -1.1653884552e+02 -4.3925533590e+02 4.5763523564e+02 1.0566000000e-01 0.0000e+00 -1.0000e+00
      -13  1    1    2    0    0 +9.7481638518e+01 +2.5155379979e+01 -5.1138309125e+01 1.1291855833e+02 1.0566000000e-01 0.0000e+00 1.0000e+00
       13  1    1    2    0    0 -4.9226839310e+01 +7.4141012531e+01 -2.4006958771e+02 2.5603435230e+02 1.0566000000e-01 0.0000e+00 -1.0000e+00
<mgrwt>
<rscale>  0 0.40888740E+03</rscale>
<asrwt>0</asrwt>
<pdfrwt beam="1">  1        2 0.21225954E+00 0.40888740E+03</pdfrwt>
<pdfrwt beam="2">  1       -2 0.12307229E-01 0.40888740E+03</pdfrwt>
<totfact> 0.74615645E+02</totfact>
</mgrwt>
</event>
<event>
 6      1 +1.8175624e-03 1.62939100e+02 7.81860800e-03 1.18541800e-01
       -1 -1    0    0    0  501 -0.0000000000e+00 +0.0000000000e+00 +3.4532391579e+01 3.4532391947e+01 5.0400000000e-03 0.0000e+00 1.0000e+00
        1 -1    0    0  501    0 +0.0000000000e+00 -0.0000000000e+00 -1.9220473328e+02 1.9220473335e+02 5.0400000000e-03 0.0000e+00 -1.0000e+00
      -13  1    1    2    0    0 +1.9514562124e+01 +1.9497429240e+00 +5.5834368843e+00 2.0391310988e+01 1.0566000000e-01 0.0000e+00 1.0000e+00
       13  1    1    2    0    0 -1.4502250639e+00 +1.5719799664e+01 -5.4819112397e+00 1.6711605820e+01 1.0566000000e-01 0.0000e+00 -1.0000e+00
      -13  1    1    2    0    0 +1.9579437351e+01 -4.8636344099e+01 -1.0753017763e+02 1.1963109378e+02 1.0566000000e-01 0.0000e+00 -1.0000e+00
       13  1    1    2    0    0 -3.7643774411e+01 +3.0966801511e+01 -5.0243689714e+01 7.0003114701e+01 1.0566000000e-01 0.0000e+00 1.0000e+00
<mgrwt>
<rscale>  0 0.16293912E+03</rscale>
<asrwt>0</asrwt>
<pdfrwt beam="1">  1        1 0.48051180E-01 0.16293912E+03</pdfrwt>
<pdfrwt beam="2">  1       -1 0.86330985E-02 0.16293912E+03</pdfrwt>
<totfact> 0.61563087E+03</totfact>
</mgrwt>
</event>
<event>
 6      1 +1.8175624e-03 4.42954200e+02 7.81860800e-03 1.02984400e-01
        2 -1    0    0  501    0 +0.0000000000e+00 +0.0000000000e+00 +2.4960776703e+02 2.4960776704e+02 2.5500000000e-03 0.0000e+00 -1.0000e+00
       -2 -1    0    0    0  501 -0.0000000000e+00 -0.0000000000e+00 -1.9651672955e+02 1.9651672957e+02 2.5500000000e-03 0.0000e+00 1.0000e+00
      -13  1    1    2    0    0 -1.1464184652e+02 -5.4702217059e+01 -9.8201585935e+01 1.6055730494e+02 1.0566000000e-01 0.0000e+00 1.0000e+00
       13  1    1    2    0    0 +5.6865596612e+00 -3.7474376602e+01 +8.4227626789e+01 9.2363251031e+01 1.0566000000e-01 0.0000e+00 -1.0000e+00
      -13  1    1    2    0    0 +1.2075769326e+02 +4.6071185234e+01 +6.7065608704e+01 1.4561174961e+02 1.0566000000e-01 0.0000e+00 1.0000e+00
       13  1    1    2    0    0 -1.1802406398e+01 +4.6105408427e+01 -6.1208210557e-04 4.7592191034e+01 1.0566000000e-01 0.0000e+00 -1.0000e+00
<mgrwt>
<rscale>  0 0.44295418E+03</rscale>
<asrwt>0</asrwt>
<pdfrwt beam="1">  1        2 0.62401941E-01 0.44295418E+03</pdfrwt>
<pdfrwt beam="2">  1       -2 0.49129183E-01 0.44295418E+03</pdfrwt>
<totfact> 0.31257970E+02</totfact>
</mgrwt>
</event>
<event>
 6      1 +1.8175624e-03 4.34893100e+02 7.81860800e-03 1.03232500e-01
        2 -1    0    0  501    0 +0.0000000000e+00 +0.0000000000e+00 +1.9351560852e+02 1.9351560854e+02 2.5500000000e-03 0.0000e+00 -1.0000e+00
       -2 -1    0    0    0  501 -0.0000000000e+00 -0.0000000000e+00 -2.4433688868e+02 2.4433688869e+02 2.5500000000e-03 0.0000e+00 1.0000e+00
      -13  1    1    2    0    0 +7.4444013434e+01 -1.8993070919e+01 -9.8765695709e+01 1.2512921998e+02 1.0566000000e-01 0.0000e+00 1.0000e+00
       13  1    1    2    0    0 +6.6565209116e+01 +3.8751950202e+01 -7.0116871716e+00 7.7342198250e+01 1.0566000000e-01 0.0000e+00 -1.0000e+00
      -13  1    1    2    0    0 -9.2942746832e+01 +7.1694769899e+01 -2.0137847397e+00 1.1739915124e+02 1.0566000000e-01 0.0000e+00 1.0000e+00
       13  1    1    2    0    0 -4.8066475718e+01 -9.1453649182e+01 +5.6969887459e+01 1.1798192776e+02 1.0566000000e-01 0.0000e+00 -1.0000e+00
<mgrwt>
<rscale>  0 0.43489310E+03</rscale>
<asrwt>0</asrwt>
<pdfrwt beam="1">  1        2 0.48378902E-01 0.43489310E+03</pdfrwt>
<pdfrwt beam="2">  1       -2 0.61084222E-01 0.43489310E+03</pdfrwt>
<totfact> 0.26453987E+02</totfact>
</mgrwt>
</event>
<event>
 6      1 +1.8175624e-03 4.42389800e+02 7.81860800e-03 1.03001600e-01
       -2 -1    0    0    0  501 -0.0000000000e+00 +0.0000000000e+00 +7.7673344002e+01 7.7673344044e+01 2.5500000000e-03 0.0000e+00 -1.0000e+00
        2 -1    0    0  501    0 +0.0000000000e+00 -0.0000000000e+00 -6.2990970699e+02 6.2990970700e+02 2.5500000000e-03 0.0000e+00 1.0000e+00
      -13  1    1    2    0    0 -1.4405713137e+02 -7.5578366307e+01 -1.9707545098e+02 2.5554508623e+02 1.0566000000e-01 0.0000e+00 1.0000e+00
       13  1    1    2    0    0 +4.6445175635e+00 -4.0700637069e+01 -1.7380273575e+02 1.7856515763e+02 1.0566000000e-01 0.0000e+00 -1.0000e+00
      -13  1    1    2    0    0 +1.0071597477e+02 +1.0645793155e+02 -8.5583504909e+01 1.6971018308e+02 1.0566000000e-01 0.0000e+00 -1.0000e+00
       13  1    1    2    0    0 +3.8696639034e+01 +9.8210718274e+00 -9.5774671349e+01 1.0376262410e+02 1.0566000000e-01 0.0000e+00 1.0000e+00
<mgrwt>
<rscale>  0 0.44238984E+03</rscale>
<asrwt>0</asrwt>
<pdfrwt beam="1">  1        2 0.15747741E+00 0.44238984E+03</pdfrwt>
<pdfrwt beam="2">  1       -2 0.19418338E-01 0.44238984E+03</pdfrwt>
<totfact> 0.55764314E+02</totfact>
</mgrwt>
</event>
<event>
 6      1 +1.8175624e-03 6.03037600e+02 7.81860800e-03 9.89912400e-02
        2 -1    0    0  501    0 +0.0000000000e+00 +0.0000000000e+00 +2.4900512286e+02 2.4900512287e+02 2.5500000000e-03 0.0000e+00 1.0000e+00
       -2 -1    0    0    0  501 -0.0000000000e+00 -0.0000000000e+00 -3.6510725763e+02 3.6510725764e+02 2.5500000000e-03 0.0000e+00 -1.0000e+00
      -13  1    1    2    0    0 -1.4816863842e+02 +1.8654311046e+02 -1.0933106884e+02 2.6211747605e+02 1.0566000000e-01 0.0000e+00 -1.0000e+00
       13  1    1    2    0    0 -5.5578994582e+01 -2.9307678792e+01 -3.8866266347e+01 7.3882085100e+01 1.0566000000e-01 0.0000e+00 1.0000e+00
      -13  1    1    2    0    0 +1.0840013904e+02 -1.4230027719e+02 +3.1277646853e+01 1.8159917783e+02 1.0566000000e-01 0.0000e+00 1.0000e+00
       13  1    1    2    0    0 +9.5347493962e+01 -1.4935154477e+01 +8.1755356670e-01 9.6513641533e+01 1.0566000000e-01 0.0000e+00 -1.0000e+00
<mgrwt>
<rscale>  0 0.60303757E+03</rscale>
<asrwt>0</asrwt>
<pdfrwt beam="1">  1        2 0.62251281E-01 0.60303757E+03</pdfrwt>
<pdfrwt beam="2">  1       -2 0.91276814E-01 0.60303757E+03</pdfrwt>
<totfact> 0.81853769E+01</totfact>
</mgrwt>
</event>
<event>
 6      1 +1.8175624e-03 2.12881400e+02 7.81860800e-03 1.13930400e-01
       -2 -1    0    0    0  501 -0.0000000000e+00 +0.0000000000e+00 +3.3000726730e+02 3.3000726731e+02 2.5500000000e-03 0.0000e+00 -1.0000e+00
        2 -1    0    0  501    0 +0.0000000000e+00 -0.0000000000e+00 -3.4331420376e+01 3.4331420471e+01 2.5500000000e-03 0.0000e+00 1.0000e+00
      -13  1    1    2    0    0 -1.4195170128e+01 -3.5084995248e+01 +4.4851632660e+01 5.8686794620e+01 1.0566000000e-01 0.0000e+00 1.0000e+00
       13  1    1    2    0    0 +1.1252830888e+01 +4.6739390724e+01 +1.9224046430e+02 1.9816055138e+02 1.0566000000e-01 0.0000e+00 -1.0000e+00
      -13  1    1    2    0    0 -9.1134223672e+00 +3.7142889963e+01 +3.5492794097e+01 5.2176607200e+01 1.0566000000e-01 0.0000e+00 1.0000e+00
       13  1    1    2    0    0 +1.2055761608e+01 -4.8797285439e+01 +2.3090955872e+01 5.5314734577e+01 1.0566000000e-01 0.0000e+00 -1.0000e+00
<mgrwt>
<rscale>  0 0.21288136E+03</rscale>
<asrwt>0</asrwt>
<pdfrwt beam="1">  1        2 0.85828549E-02 0.21288136E+03</pdfrwt>
<pdfrwt beam="2">  1       -2 0.82501818E-01 0.21288136E+03</pdfrwt>
<totfact> 0.10247386E+03</totfact>
</mgrwt>
</event>
<event>
 6      1 +1.8175624e-03 2.02296200e+02 7.81860800e-03 1.14781600e-01
        2 -1    0    0  501    0 +0.0000000000e+00 +0.0000000000e+00 +5.8283633348e+02 5.8283633348e+02 2.5500000000e-03 0.0000e+00 -1.0000e+00
       -2 -1    0    0    0  501 -0.0000000000e+00 -0.0000000000e+00 -1.7553704680e+01 1.7553704865e+01 2.5500000000e-03 0.0000e+00 1.0000e+00
      -13  1    1    2    0    0 -1.8588233501e+01 -4.9381560542e+01 +8.2005084834e+01 9.7513619812e+01 1.0566000000e-01 0.0000e+00 -1.0000e+00
       13  1    1    2    0    0 +5.7985957515e+01 +3.5828165253e+01 +2.3959925787e+02 2.4910609031e+02 1.0566000000e-01 0.0000e+00 1.0000e+00
      -13  1    1    2    0    0 +5.0291817940e-01 +1.1663531932e+01 +6.7241633792e+00 1.3472803754e+01 1.0566000000e-01 0.0000e+00 1.0000e+00
       13  1    1    2    0    0 -3.9900642194e+01 +1.8898633574e+00 +2.3695412271e+02 2.4029752447e+02 1.0566000000e-01 0.0000e+00 -1.0000e+00
<mgrwt>
<rscale>  0 0.20229619E+03</rscale>
<asrwt>0</asrwt>
<pdfrwt beam="1">  1        2 0.14570908E+00 0.20229619E+03</pdfrwt>
<pdfrwt beam="2">  1       -2 0.43884262E-02 0.20229619E+03</pdfrwt>
<totfact> 0.66779457E+03</totfact>
</mgrwt>
</event>
<event>
 6      1 +1.8175624e-03 5.53614400e+02 7.81860800e-03 1.00066100e-01
       -2 -1    0    0    0  501 -0.0000000000e+00 +0.0000000000e+00 +1.8849817090e+02 1.8849817092e+02 2.5500000000e-03 0.0000e+00 1.0000e+00
        2 -1    0    0  501    0 +0.0000000000e+00 -0.0000000000e+00 -4.0648788127e+02 4.0648788128e+02 2.5500000000e-03 0.0000e+00 -1.0000e+00
      -13  1    1    2    0    0 +5.7872142695e+01 +1.2968500560e+01 +4.4427695981e+01 7.4102619665e+01 1.0566000000e-01 0.0000e+00 -1.0000e+00
       13  1    1    2    0    0 +8.5187543045e+01 -5.7821430977e+01 -3.2695597865e+02 3.4278339883e+02 1.0566000000e-01 0.0000e+00 -1.0000e+00
      -13  1    1    2    0    0 -1.6643399452e+01 +3.5529531580e+01 +1.5020423977e+01 4.2011601494e+01 1.0566000000e-01 0.0000e+00 1.0000e+00
       13  1    1    2    0    0 -1.2641628629e+02 +9.3233988376e+00 +4.9518148322e+01 1.3608843221e+02 1.0566000000e-01 0.0000e+00 1.0000e+00
<mgrwt>
<rscale>  0 0.55361439E+03</rscale>
<asrwt>0</asrwt>
<pdfrwt beam="1">  1        2 0.10162197E+00 0.55361439E+03</pdfrwt>
<pdfrwt beam="2">  1       -2 0.47124543E-01 0.55361439E+03</pdfrwt>
<totfact> 0.19196402E+02</totfact>
</mgrwt>
</event>
<event>
 6      1 +1.8175624e-03 3.69760600e+02 7.81860800e-03 1.05478500e-01
        2 -1    0    0  501    0 +0.0000000000e+00 +0.0000000000e+00 +2.6134982990e+02 2.6134982992e+02 2.5500000000e-03 0.0000e+00 -1.0000e+00
       -2 -1    0    0    0  501 -0.0000000000e+00 -0.0000000000e+00 -1.3078530079e+02 1.3078530082e+02 2.5500000000e-03 0.0000e+00 1.0000e+00
      -13  1    1    2    0    0 +4.0599777142e+01 +7.7990408507e+00 +3.5396103802e+01 5.4424831378e+01 1.0566000000e-01 0.0000e+00 1.0000e+00
       13  1    1    2    0    0 +2.4141733046e+01 +1.3607826969e+02 +1.2587916605e+01 1.3877530604e+02 1.0566000000e-01 0.0000e+00 -1.0000e+00
      -13  1    1    2    0    0 -8.5614684505e+01 -1.2669076926e+02 +6.2189868144e+01 1.6506973097e+02 1.0566000000e-01 0.0000e+00 1.0000e+00
       13  1    1    2    0    0 +2.0873174318e+01 -1.7186541283e+01 +2.0390640558e+01 3.3865262346e+01 1.0566000000e-01 0.0000e+00 -1.0000e+00
<mgrwt>
<rscale>  0 0.36976055E+03</rscale>
<asrwt>0</asrwt>
<pdfrwt beam="1">  1        2 0.65337457E-01 0.36976055E+03</pdfrwt>
<pdfrwt beam="2">  1       -2 0.32696325E-01 0.36976055E+03</pdfrwt>
<totfact> 0.65382715E+02</totfact>
</mgrwt>
</event>
<event>
 6      1 +1.8175624e-03 2.71388500e+02 7.81860800e-03 1.10048800e-01
        2 -1    0    0  501    0 +0.0000000000e+00 +0.0000000000e+00 +1.0627951614e+02 1.0627951617e+02 2.5500000000e-03 0.0000e+00 -1.0000e+00
       -2 -1    0    0    0  501 -0.0000000000e+00 -0.0000000000e+00 -1.7325000850e+02 1.7325000851e+02 2.5500000000e-03 0.0000e+00 1.0000e+00
      -13  1    1    2    0    0 +7.5171056726e+01 -4.4504638567e+01 +2.5409740015e+01 9.0978110966e+01 1.0566000000e-01 0.0000e+00 -1.0000e+00
       13  1    1    2    0    0 -7.4273224753e+00 -3.3341639493e+01 -1.4412395259e+01 3.7075036674e+01 1.0566000000e-01 0.0000e+00 -1.0000e+00
      -13  1    1    2    0    0 -7.9276554594e+01 +6.5965062343e+01 -4.1024284855e+01 1.1099173244e+02 1.0566000000e-01 0.0000e+00 1.0000e+00
       13  1    1    2    0    0 +1.1532820344e+01 +1.1881215718e+01 -3.6943552252e+01 4.0484644608e+01 1.0566000000e-01 0.0000e+00 1.0000e+00
<mgrwt>
<rscale>  0 0.27138848E+03</rscale>
<asrwt>0</asrwt>
<pdfrwt beam="1">  1        2 0.26569879E-01 0.27138848E+03</pdfrwt>
<pdfrwt beam="2">  1       -2 0.43312502E-01 0.27138848E+03</pdfrwt>
<totfact> 0.10258565E+03</totfact>
</mgrwt>
</event>
<event>
 6      1 +1.8175624e-03 3.43478000e+02 7.81860800e-03 1.06532400e-01
       -2 -1    0    0    0  501 -0.0000000000e+00 +0.0000000000e+00 +6.3060260801e+01 6.3060260852e+01 2.5500000000e-03 0.0000e+00 -1.0000e+00
        2 -1    0    0  501    0 +0.0000000000e+00 -0.0000000000e+00 -4.6771573061e+02 4.6771573061e+02 2.5500000000e-03 0.0000e+00 1.0000e+00
      -13  1    1    2    0    0 -2.6241504354e+01 -8.7898767408e+01 -1.0501260487e+02 1.3943625142e+02 1.0566000000e-01 0.0000e+00 -1.0000e+00
       13  1    1    2    0    0 -5.0554707117e+01 -6.9596921397e+00 -2.0150084022e+02 2.0786249181e+02 1.0566000000e-01 0.0000e+00 1.0000e+00
      -13  1    1    2    0    0 +9.8999555903e+01 +6.7722203057e+01 -7.6951866113e+01 1.4250898118e+02 1.0566000000e-01 0.0000e+00 -1.0000e+00
       13  1    1    2    0    0 -2.2203344431e+01 +2.7136256490e+01 -2.1190158597e+01 4.0968267057e+01 1.0566000000e-01 0.0000e+00 1.0000e+00
<mgrwt>
<rscale>  0 0.34347795E+03</rscale>
<asrwt>0</asrwt>
<pdfrwt beam="1">  1        2 0.11692892E+00 0.34347795E+03</pdfrwt>
<pdfrwt beam="2">  1       -2 0.15765067E-01 0.34347795E+03</pdfrwt>
<totfact> 0.11939248E+03</totfact>
</mgrwt>
</event>
<event>
 6      1 +1.8175624e-03 2.38219600e+02 7.81860800e-03 1.12098500e-01
        4 -1    0    0  501    0 +0.0000000000e+00 +0.0000000000e+00 +8.0102241028e+01 8.0112308154e+01 1.2700000000e+00 0.0000e+00 -1.0000e+00
       -4 -1    0    0    0  501 -0.0000000000e+00 -0.0000000000e+00 -1.7708951319e+02 1.7709406704e+02 1.2700000000e+00 0.0000e+00 1.0000e+00
      -13  1    1    2    0    0 +2.3557355931e+01 +8.6782513518e+00 -3.9590586936e+01 4.6879492350e+01 1.0566000000e-01 0.0000e+00 -1.0000e+00
       13  1    1    2    0    0 -7.7535587813e+01 -5.4413726483e+01 -5.3567366229e+01 1.0882138988e+02 1.0566000000e-01 0.0000e+00 1.0000e+00
      -13  1    1    2    0    0 +4.8845481565e+01 +9.2271527552e-01 -2.1086939344e+01 5.3210926019e+01 1.0566000000e-01 0.0000e+00 1.0000e+00
       13  1    1    2    0    0 +5.1327503167e+00 +4.4812759856e+01 +1.7257620353e+01 4.8294566941e+01 1.0566000000e-01 0.0000e+00 -1.0000e+00
<mgrwt>
<rscale>  0 0.23821962E+03</rscale>
<asrwt>0</asrwt>
<pdfrwt beam="1">  1        4 0.20027388E-01 0.23821962E+03</pdfrwt>
<pdfrwt beam="2">  1       -4 0.44274205E-01 0.23821962E+03</pdfrwt>
<totfact> 0.20377096E+02</totfact>
</mgrwt>
</event>
<event>
 6      1 +1.8175624e-03 4.22293600e+02 7.81860800e-03 1.03632200e-01
        1 -1    0    0  501    0 +0.0000000000e+00 +0.0000000000e+00 +2.1243046988e+02 2.1243046994e+02 5.0400000000e-03 0.0000e+00 1.0000e+00
       -1 -1    0    0    0  501 -0.0000000000e+00 -0.0000000000e+00 -2.0987093558e+02 2.0987093564e+02 5.0400000000e-03 0.0000e+00 -1.0000e+00
      -13  1    1    2    0    0 +1.3813341556e+02 +3.3335987443e+01 +1.9156387142e+01 1.4338447226e+02 1.0566000000e-01 0.0000e+00 -1.0000e+00
       13  1    1    2    0    0 +3.6328021874e+00 -7.7597282976e+01 +3.0123225170e+01 8.3318397943e+01 1.0566000000e-01 0.0000e+00 1.0000e+00
      -13  1    1    2    0    0 -3.7169165504e+01 -2.7628441312e+01 -5.0631777601e+01 6.8618260694e+01 1.0566000000e-01 0.0000e+00 -1.0000e+00
       13  1    1    2    0    0 -1.0459705225e+02 +7.1889736846e+01 +3.9116995870e+00 1.2698027469e+02 1.0566000000e-01 0.0000e+00 1.0000e+00
<mgrwt>
<rscale>  0 0.42229365E+03</rscale>
<asrwt>0</asrwt>
<pdfrwt beam="1">  1        1 0.53107617E-01 0.42229365E+03</pdfrwt>
<pdfrwt beam="2">  1       -1 0.52467734E-01 0.42229365E+03</pdfrwt>
<totfact> 0.27416358E+02</totfact>
</mgrwt>
</event>
<event>
 6      1 +1.8175624e-03 3.34877600e+02 7.81860800e-03 1.06899900e-01
        4 -1    0    0  501    0 +0.0000000000e+00 +0.0000000000e+00 +6.3113593962e+02 6.3113721739e+02 1.2700000000e+00 0.0000e+00 -1.0000e+00
       -4 -1    0    0    0  501 -0.0000000000e+00 -0.0000000000e+00 -4.4410685983e+01 4.4428841190e+01 1.2700000000e+00 0.0000e+00 1.0000e+00
      -13  1    1    2    0    0 +4.3247693837e+01 -8.2559062803e+01 +1.2321350610e+02 1.5449252772e+02 1.0566000000e-01 0.0000e+00 1.0000e+00
       13  1    1    2    0    0 +5.1413517442e+01 +2.2141121715e+01 +5.6808064735e+01 7.9754287844e+01 1.0566000000e-01 0.0000e+00 1.0000e+00
      -13  1    1    2    0    0 -1.0531736738e+02 -4.5140403109e+00 +2.4238288099e+02 2.6431344384e+02 1.0566000000e-01 0.0000e+00 -1.0000e+00
       13  1    1    2    0    0 +1.0656156098e+01 +6.4931981398e+01 +1.6432080181e+02 1.7700579918e+02 1.0566000000e-01 0.0000e+00 -1.0000e+00
<mgrwt>
<rscale>  0 0.33487755E+03</rscale>
<asrwt>0</asrwt>
<pdfrwt beam="1">  1        4 0.15778641E+00 0.33487755E+03</pdfrwt>
<pdfrwt beam="2">  1       -4 0.11105101E-01 0.33487755E+03</pdfrwt>
<totfact> 0.32887426E+01</totfact>
</mgrwt>
</event>
<event>
 6      1 +1.8175624e-03 5.13135700e+02 7.81860800e-03 1.01040600e-01
        1 -1    0    0  501    0 +0.0000000000e+00 +0.0000000000e+00 +5.1741551563e+02 5.1741551566e+02 5.0400000000e-03 0.0000e+00 -1.0000e+00
       -1 -1    0    0    0  501 -0.0000000000e+00 -0.0000000000e+00 -1.2722284307e+02 1.2722284317e+02 5.0400000000e-03 0.0000e+00 1.0000e+00
      -13  1    1    2    0    0 -1.6543885252e+02 -2.9863381033e+01 +3.3801447371e+01 1.7147706686e+02 1.0566000000e-01 0.0000e+00 1.0000e+00
       13  1    1    2    0    0 -4.9965622896e+01 -4.5817144199e+01 +1.3200985928e+02 1.4839942144e+02 1.0566000000e-01 0.0000e+00 -1.0000e+00
      -13  1    1    2    0    0 +1.4452065279e+01 +1.7780588225e+01 +3.9320652908e+01 4.5509739810e+01 1.0566000000e-01 0.0000e+00 1.0000e+00
       13  1    1    2    0    0 +2.0095241014e+02 +5.7899937008e+01 +1.8506071300e+02 2.7925213071e+02 1.0566000000e-01 0.0000e+00 -1.0000e+00
<mgrwt>
<rscale>  0 0.51313574E+03</rscale>
<asrwt>0</asrwt>
<pdfrwt beam="1">  1        1 0.12935388E+00 0.51313574E+03</pdfrwt>
<pdfrwt beam="2">  1       -1 0.31805711E-01 0.51313574E+03</pdfrwt>
<totfact> 0.19348236E+02</totfact>
</mgrwt>
</event>
<event>
 6      1 +1.8175624e-03 2.29182600e+02 7.81860800e-03 1.12721600e-01
        2 -1    0    0  501    0 +0.0000000000e+00 +0.0000000000e+00 +2.2049343250e+01 2.2049343397e+01 2.5500000000e-03 0.0000e+00 -1.0000e+00
       -2 -1    0    0    0  501 -0.0000000000e+00 -0.0000000000e+00 -5.9553546715e+02 5.9553546716e+02 2.5500000000e-03 0.0000e+00 1.0000e+00
      -13  1    1    2    0    0 -5.7345289744e+01 -1.8277131918e+01 -2.8910950518e+02 2.9530806450e+02 1.0566000000e-01 0.0000e+00 1.0000e+00
       13  1    1    2    0    0 -8.2564838808e+00 +5.3878795871e+01 -1.5396186493e+02 1.6332593544e+02 1.0566000000e-01 0.0000e+00 -1.0000e+00
      -13  1    1    2    0    0 +1.2073644466e+01 +7.0897071713e+00 -5.6451367971e+01 5.8161885702e+01 1.0566000000e-01 0.0000e+00 1.0000e+00
       13  1    1    2    0    0 +5.3528129158e+01 -4.2691371124e+01 -7.3963385818e+01 1.0078892491e+02 1.0566000000e-01 0.0000e+00 -1.0000e+00
<mgrwt>
<rscale>  0 0.22918260E+03</rscale>
<asrwt>0</asrwt>
<pdfrwt beam="1">  1        2 0.55123378E-02 0.22918260E+03</pdfrwt>
<pdfrwt beam="2">  1       -2 0.14888381E+00 0.22918260E+03</pdfrwt>
<totfact> 0.44475426E+02</totfact>
</mgrwt>
</event>
<event>
 6      1 +1.8175624e-03 2.12084500e+02 7.81860800e-03 1.13992600e-01
       -2 -1    0    0    0  501 -0.0000000000e+00 +0.0000000000e+00 +1.5192956210e+02 1.5192956212e+02 2.5500000000e-03 0.0000e+00 -1.0000e+00
        2 -1    0    0  501    0 +0.0000000000e+00 -0.0000000000e+00 -7.4014294297e+01 7.4014294341e+01 2.5500000000e-03 0.0000e+00 1.0000e+00
      -13  1    1    2    0    0 -4.4299875565e+01 -1.5555031507e+01 +1.3686915180e+01 4.8905835965e+01 1.0566000000e-01 0.0000e+00 -1.0000e+00
       13  1    1    2    0    0 +3.8273649512e+01 -6.7480613362e-01 +2.6357222053e+01 4.6476251233e+01 1.0566000000e-01 0.0000e+00 -1.0000e+00
      -13  1    1    2    0    0 -3.2945873772e+01 -8.5300479544e-01 +6.9915284142e+01 7.7293701791e+01 1.0566000000e-01 0.0000e+00 1.0000e+00
       13  1    1    2    0    0 +3.8972099825e+01 +1.7082842436e+01 -3.2044153570e+01 5.3268067476e+01 1.0566000000e-01 0.0000e+00 1.0000e+00
<mgrwt>
<rscale>  0 0.21208451E+03</rscale>
<asrwt>0</asrwt>
<pdfrwt beam="1">  1        2 0.18503574E-01 0.21208451E+03</pdfrwt>
<pdfrwt beam="2">  1       -2 0.37982390E-01 0.21208451E+03</pdfrwt>
<totfact> 0.19773448E+03</totfact>
</mgrwt>
</event>
<event>
 6      1 +1.8175624e-03 6.02352300e+02 7.81860800e-03 9.90053800e-02
       -2 -1    0    0    0  501 -0.0000000000e+00 +0.0000000000e+00 +5.2880972951e+01 5.2880973012e+01 2.5500000000e-03 0.0000e+00 -1.0000e+00
        2 -1    0    0  501    0 +0.0000000000e+00 -0.0000000000e+00 -1.7153062076e+03 1.7153062076e+03 2.5500000000e-03 0.0000e+00 1.0000e+00
      -13  1    1    2    0    0 +6.5956577505e+00 +8.4590729622e+01 -1.1463032455e+02 1.4261562576e+02 1.0566000000e-01 0.0000e+00 1.0000e+00
       13  1    1    2    0    0 +1.3201243789e+02 -4.1298826509e+01 -4.5784521445e+02 4.7828352301e+02 1.0566000000e-01 0.0000e+00 1.0000e+00
      -13  1    1    2    0    0 +8.7459398494e+01 +4.9085317060e+01 -4.7800286103e+02 4.8841095509e+02 1.0566000000e-01 0.0000e+00 -1.0000e+00
       13  1    1    2    0    0 -2.2606749413e+02 -9.2377220173e+01 -6.1194683465e+02 6.5887707678e+02 1.0566000000e-01 0.0000e+00 -1.0000e+00
<mgrwt>
<rscale>  0 0.60235226E+03</rscale>
<asrwt>0</asrwt>
<pdfrwt beam="1">  1        2 0.42882637E+00 0.60235226E+03</pdfrwt>
<pdfrwt beam="2">  1       -2 0.13220249E-01 0.60235226E+03</pdfrwt>
<totfact> 0.10896132E+02</totfact>
</mgrwt>
</event>
<event>
 6      1 +1.8175624e-03 2.63228800e+02 7.81860800e-03 1.10521900e-01
        2 -1    0    0  501    0 +0.0000000000e+00 +0.0000000000e+00 +1.8943577009e+01 1.8943577180e+01 2.5500000000e-03 0.0000e+00 -1.0000e+00
       -2 -1    0    0    0  501 -0.0000000000e+00 -0.0000000000e+00 -9.1441832444e+02 9.1441832444e+02 2.5500000000e-03 0.0000e+00 1.0000e+00
      -13  1    1    2    0    0 +5.0533617463e+01 -2.4056601032e+01 -2.1482377062e+02 2.2199466240e+02 1.0566000000e-01 0.0000e+00 1.0000e+00
       13  1    1    2    0    0 +1.5598043108e+01 +3.9456126009e+01 -1.0057801428e+02 1.0916058331e+02 1.0566000000e-01 0.0000e+00 -1.0000e+00
      -13  1    1    2    0    0 +2.3051619321e+01 +4.3761378653e+01 -2.6152836179e+02 2.6616448035e+02 1.0566000000e-01 0.0000e+00 1.0000e+00
       13  1    1    2    0    0 -8.9183279893e+01 -5.9160903631e+01 -3.1854460074e+02 3.3604217556e+02 1.0566000000e-01 0.0000e+00 -1.0000e+00
<mgrwt>
<rscale>  0 0.26322883E+03</rscale>
<asrwt>0</asrwt>
<pdfrwt beam="1">  1        2 0.47358973E-02 0.26322883E+03</pdfrwt>
<pdfrwt beam="2">  1       -2 0.22860443E+00 0.26322883E+03</pdfrwt>
<totfact> 0.16216306E+02</totfact>
</mgrwt>
</event>
<event>
 7      1 +1.8175624e-03 9.39917300e+01 7.81860800e-03 1.29346300e-01
        1 -1    0    0  501    0 +0.0000000000e+00 +0.0000000000e+00 +4.1784921250e+01 4.1784921554e+01 5.0400000000e-03 0.0000e+00 -1.0000e+00
       -1 -1    0    0    0  501 -0.0000000000e+00 -0.0000000000e+00 -5.2856663827e+01 5.2856664067e+01 5.0400000000e-03 0.0000e+00 1.0000e+00
       23  2    1    2    0    0 +3.3306690739e-15 +0.0000000000e+00 -1.1071742577e+01 9.4641585621e+01 9.3991734984e+01 0.0000e+00 0.0000e+00
      -13  1    3    3    0    0 -1.2100522752e+01 -3.3634470575e+00 -1.4117514975e+00 1.2638814553e+01 1.0566000000e-01 0.0000e+00 -1.0000e+00
       13  1    3    3    0    0 +2.1696257924e-01 +1.3254281352e+01 +1.0592198877e+01 1.6968467462e+01 1.0566000000e-01 0.0000e+00 1.0000e+00
      -13  1    3    3    0    0 +2.3062760231e+01 -1.3289144566e+01 -3.6405150180e+01 4.5098097481e+01 1.0566000000e-01 0.0000e+00 1.0000e+00
       13  1    3    3    0    0 -1.1179200058e+01 +3.3983102712e+00 +1.6152960223e+01 1.9936206125e+01 1.0566000000e-01 0.0000e+00 -1.0000e+00
<mgrwt>
<rscale>  0 0.93991735E+02</rscale>
<asrwt>0</asrwt>
<pdfrwt beam="1">  1        1 0.10446230E-01 0.93991735E+02</pdfrwt>
<pdfrwt beam="2">  1       -1 0.13214166E-01 0.93991735E+02</pdfrwt>
<totfact> 0.21099929E+04</totfact>
</mgrwt>
</event>
<event>
 6      1 +1.8175624e-03 7.80102200e+02 7.81860800e-03 9.58927300e-02
        2 -1    0    0  501    0 +0.0000000000e+00 +0.0000000000e+00 +5.2305566316e+02 5.2305566317e+02 2.5500000000e-03 0.0000e+00 -1.0000e+00
       -2 -1    0    0    0  501 -0.0000000000e+00 -0.0000000000e+00 -2.9086742734e+02 2.9086742735e+02 2.5500000000e-03 0.0000e+00 1.0000e+00
      -13  1    1    2    0    0 -4.6066450730e+01 -2.2817436329e+02 +1.3151837237e+02 2.6736258411e+02 1.0566000000e-01 0.0000e+00 1.0000e+00
       13  1    1    2    0    0 +1.0782265346e+02 +3.0163595575e+02 +9.1955816616e+01 3.3326544641e+02 1.0566000000e-01 0.0000e+00 -1.0000e+00
      -13  1    1    2    0    0 +1.6351415104e+00 -2.2112788039e+01 -8.5697961833e+01 8.8520059359e+01 1.0566000000e-01 0.0000e+00 1.0000e+00
       13  1    1    2    0    0 -6.3391344242e+01 -5.1348804420e+01 +9.4412008667e+01 1.2477500064e+02 1.0566000000e-01 0.0000e+00 -1.0000e+00
<mgrwt>
<rscale>  0 0.78010219E+03</rscale>
<asrwt>0</asrwt>
<pdfrwt beam="1">  1        2 0.13076391E+00 0.78010219E+03</pdfrwt>
<pdfrwt beam="2">  1       -2 0.72716858E-01 0.78010219E+03</pdfrwt>
<totfact> 0.54898595E+01</totfact>
</mgrwt>
</event>
<event>
 6      1 +1.8175624e-03 1.78926100e+02 7.81860800e-03 1.16884600e-01
       -2 -1    0    0    0  501 -0.0000000000e+00 +0.0000000000e+00 +5.2322134097e+01 5.2322134159e+01 2.5500000000e-03 0.0000e+00 -1.0000e+00
        2 -1    0    0  501    0 +0.0000000000e+00 -0.0000000000e+00 -1.5296844288e+02 1.5296844290e+02 2.5500000000e-03 0.0000e+00 1.0000e+00
      -13  1    1    2    0    0 +8.1400532514e+01 +5.5790753214e+00 -2.5445792623e+01 8.5467375655e+01 1.0566000000e-01 0.0000e+00 1.0000e+00
       13  1    1    2    0    0 -2.5231731427e+01 -9.2553135538e+00 -4.6214951659e+01 5.3461519064e+01 1.0566000000e-01 0.0000e+00 1.0000e+00
      -13  1    1    2    0    0 -3.4865381377e+01 +1.1418513806e+01 -1.4428845009e+01 3.9423089788e+01 1.0566000000e-01 0.0000e+00 -1.0000e+00
       13  1    1    2    0    0 -2.1303419710e+01 -7.7422755740e+00 -1.4556719492e+01 2.6938592554e+01 1.0566000000e-01 0.0000e+00 -1.0000e+00
<mgrwt>
<rscale>  0 0.17892608E+03</rscale>
<asrwt>0</asrwt>
<pdfrwt beam="1">  1        2 0.38242110E-01 0.17892608E+03</pdfrwt>
<pdfrwt beam="2">  1       -2 0.13080534E-01 0.17892608E+03</pdfrwt>
<totfact> 0.55967904E+03</totfact>
</mgrwt>
</event>
<event>
 7      1 +1.8175624e-03 9.47542500e+01 7.81860800e-03 1.29173100e-01
        1 -1    0    0  501    0 +0.0000000000e+00 +0.0000000000e+00 +3.7545392848e+01 3.7545393186e+01 5.0400000000e-03 0.0000e+00 1.0000e+00
       -1 -1    0    0    0  501 -0.0000000000e+00 -0.0000000000e+00 -5.9783424837e+01 5.9783425049e+01 5.0400000000e-03 0.0000e+00 -1.0000e+00
       23  2    1    2    0    0 -1.7763568394e-15 +1.7763568394e-15 -2.2238031989e+01 9.7328818235e+01 9.4754254745e+01 0.0000e+00 0.0000e+00
      -13  1    3    3    0    0 -8.7180593804e+00 +1.0096990020e+01 +2.7345353089e+01 3.0425865089e+01 1.0566000000e-01 0.0000e+00 1.0000e+00
       13  1    3    3    0    0 -1.1110441900e+01 -7.7043662103e-01 -1.2339717688e+01 1.6622734085e+01 1.0566000000e-01 0.0000e+00 -1.0000e+00
      -13  1    3    3    0    0 +6.3392849924e+00 +9.0031328881e+00 -1.1608678318e+01 1.6000484754e+01 1.0566000000e-01 0.0000e+00 1.0000e+00
       13  1    3    3    0    0 +1.3489216288e+01 -1.8329686287e+01 -2.5634989072e+01 3.4279734307e+01 1.0566000000e-01 0.0000e+00 -1.0000e+00
<mgrwt>
<rscale>  0 0.94754255E+02</rscale>
<asrwt>0</asrwt>
<pdfrwt beam="1">  1        1 0.93863483E-02 0.94754255E+02</pdfrwt>
<pdfrwt beam="2">  1       -1 0.14945856E-01 0.94754255E+02</pdfrwt>
<totfact> 0.20092350E+04</totfact>
</mgrwt>
</event>
<event>
 7      1 +1.8175624e-03 9.98645400e+01 7.81860800e-03 1.28058100e-01
        1 -1    0    0  501    0 +0.0000000000e+00 +0.0000000000e+00 +2.4713403892e+01 2.4713404406e+01 5.0400000000e-03 0.0000e+00 -1.0000e+00
       -1 -1    0    0    0  501 -0.0000000000e+00 -0.0000000000e+00 -1.0088581039e+02 1.0088581052e+02 5.0400000000e-03 0.0000e+00 1.0000e+00
       23  2    1    2    0    0 +0.0000000000e+00 +0.0000000000e+00 -7.6172406499e+01 1.2559921492e+02 9.9864544646e+01 0.0000e+00 0.0000e+00
      -13  1    3    3    0    0 -2.7568997417e+01 -1.0248317518e+01 -1.0186487649e+01 3.1126408807e+01 1.0566000000e-01 0.0000e+00 1.0000e+00
       13  1    3    3    0    0 +1.0599150138e+01 -1.4855945880e+01 -2.4936830887e+01 3.0901420847e+01 1.0566000000e-01 0.0000e+00 -1.0000e+00
      -13  1    3    3    0    0 -4.9134546781e+00 +2.5918044625e+01 -1.9118222272e+01 3.2579205959e+01 1.0566000000e-01 0.0000e+00 1.0000e+00
       13  1    3    3    0    0 +2.1883301957e+01 -8.1378122655e-01 -2.1930865691e+01 3.0992179310e+01 1.0566000000e-01 0.0000e+00 -1.0000e+00
<mgrwt>
<rscale>  0 0.99864545E+02</rscale>
<asrwt>0</asrwt>
<pdfrwt beam="1">  1        1 0.61783513E-02 0.99864545E+02</pdfrwt>
<pdfrwt beam="2">  1       -1 0.25221452E-01 0.99864545E+02</pdfrwt>
<totfact> 0.15353938E+04</totfact>
</mgrwt>
</event>
<event>
 6      1 +1.8175624e-03 3.41194500e+02 7.81860800e-03 1.06628800e-01
        1 -1    0    0  501    0 +0.0000000000e+00 +0.0000000000e+00 +7.2062157745e+02 7.2062157747e+02 5.0400000000e-03 0.0000e+00 -1.0000e+00
       -1 -1    0    0    0  501 -0.0000000000e+00 -0.0000000000e+00 -4.0386558594e+01 4.0386558908e+01 5.0400000000e-03 0.0000e+00 1.0000e+00
      -13  1    1    2    0    0 -7.8472142862e+01 +3.6963529112e+00 +1.1254058867e+02 1.3724771580e+02 1.0566000000e-01 0.0000e+00 1.0000e+00
       13  1    1    2    0    0 -3.5971195451e+01 +4.7470732076e+01 +1.1213560892e+02 1.2697166321e+02 1.0566000000e-01 0.0000e+00 -1.0000e+00
      -13  1    1    2    0    0 +1.1427813532e+02 -8.6745579268e+01 +2.5059374749e+02 2.8875859325e+02 1.0566000000e-01 0.0000e+00 1.0000e+00
       13  1    1    2    0    0 +1.6520299433e-01 +3.5578494281e+01 +2.0496507379e+02 2.0803016412e+02 1.0566000000e-01 0.0000e+00 -1.0000e+00
<mgrwt>
<rscale>  0 0.34119452E+03</rscale>
<asrwt>0</asrwt>
<pdfrwt beam="1">  1        1 0.18015540E+00 0.34119452E+03</pdfrwt>
<pdfrwt beam="2">  1       -1 0.10096639E-01 0.34119452E+03</pdfrwt>
<totfact> 0.71888077E+02</totfact>
</mgrwt>
</event>
<event>
 6      1 +1.8175624e-03 3.36535300e+02 7.81860800e-03 1.06828100e-01
       -2 -1    0    0    0  501 -0.0000000000e+00 +0.0000000000e+00 +7.1262120815e+01 7.1262120861e+01 2.5500000000e-03 0.0000e+00 1.0000e+00
        2 -1    0    0  501    0 +0.0000000000e+00 -0.0000000000e+00 -3.9732191291e+02 3.9732191292e+02 2.5500000000e-03 0.0000e+00 -1.0000e+00
      -13  1    1    2    0    0 -9.4518579325e+01 +6.4697075859e+01 -1.3081793195e+02 1.7387586361e+02 1.0566000000e-01 0.0000e+00 1.0000e+00
       13  1    1    2    0    0 +1.5906230934e+01 -4.2279969360e+01 -5.4790536429e+01 7.1011393718e+01 1.0566000000e-01 0.0000e+00 1.0000e+00
      -13  1    1    2    0    0 +1.1315382163e+02 +9.0114591016e+00 -5.4588968304e+01 1.2595618432e+02 1.0566000000e-01 0.0000e+00 -1.0000e+00
       13  1    1    2    0    0 -3.4541473238e+01 -3.1428565600e+01 -8.5862355408e+01 9.7740592127e+01 1.0566000000e-01 0.0000e+00 -1.0000e+00
<mgrwt>
<rscale>  0 0.33653530E+03</rscale>
<asrwt>0</asrwt>
<pdfrwt beam="1">  1        2 0.99330472E-01 0.33653530E+03</pdfrwt>
<pdfrwt beam="2">  1       -2 0.17815531E-01 0.33653530E+03</pdfrwt>
<totfact> 0.11873006E+03</totfact>
</mgrwt>
</event>
<event>
 6      1 +1.8175624e-03 4.29333200e+02 7.81860800e-03 1.03407100e-01
        2 -1    0    0  501    0 +0.0000000000e+00 +0.0000000000e+00 +4.4036755367e+02 4.4036755367e+02 2.5500000000e-03 0.0000e+00 -1.0000e+00
       -2 -1    0    0    0  501 -0.0000000000e+00 -0.0000000000e+00 -1.0464381774e+02 1.0464381778e+02 2.5500000000e-03 0.0000e+00 1.0000e+00
      -13  1    1    2    0    0 +2.1040327229e+01 +5.0652452576e+01 +9.5581549599e+01 1.1020077182e+02 1.0566000000e-01 0.0000e+00 -1.0000e+00
       13  1    1    2    0    0 +6.5460101885e+01 -3.6737197612e+01 +7.6660709683e+01 1.0729176203e+02 1.0566000000e-01 0.0000e+00 1.0000e+00
      -13  1    1    2    0    0 -1.7591069856e+02 -5.6157943282e+01 +1.1304596877e+02 2.1651256472e+02 1.0566000000e-01 0.0000e+00 1.0000e+00
       13  1    1    2    0    0 +8.9410269450e+01 +4.2242688318e+01 +5.0435507868e+01 1.1100627287e+02 1.0566000000e-01 0.0000e+00 -1.0000e+00
<mgrwt>
<rscale>  0 0.42933317E+03</rscale>
<asrwt>0</asrwt>
<pdfrwt beam="1">  1        2 0.11009189E+00 0.42933317E+03</pdfrwt>
<pdfrwt beam="2">  1       -2 0.26160955E-01 0.42933317E+03</pdfrwt>
<totfact> 0.53388061E+02</totfact>
</mgrwt>
</event>
<event>
 6      1 +1.8175624e-03 3.60722700e+02 7.81860800e-03 1.05829800e-01
        2 -1    0    0  501    0 +0.0000000000e+00 +0.0000000000e+00 +2.0986683510e+02 2.0986683511e+02 2.5500000000e-03 0.0000e+00 -1.0000e+00
       -2 -1    0    0    0  501 -0.0000000000e+00 -0.0000000000e+00 -1.5500408526e+02 1.5500408529e+02 2.5500000000e-03 0.0000e+00 1.0000e+00
      -13  1    1    2    0    0 +6.0372612594e+01 +7.3044849707e+01 -2.8084005299e+01 9.8838883735e+01 1.0566000000e-01 0.0000e+00 1.0000e+00
       13  1    1    2    0    0 +6.3276712935e+00 -9.3857520726e+01 +4.8404134273e+01 1.0579340717e+02 1.0566000000e-01 0.0000e+00 -1.0000e+00
      -13  1    1    2    0    0 -9.1121436220e+01 +5.4153763750e+01 -5.8211897477e-01 1.0600045421e+02 1.0566000000e-01 0.0000e+00 -1.0000e+00
       13  1    1    2    0    0 +2.4421152332e+01 -3.3341092731e+01 +3.5124739832e+01 5.4238175283e+01 1.0566000000e-01 0.0000e+00 1.0000e+00
<mgrwt>
<rscale>  0 0.36072270E+03</rscale>
<asrwt>0</asrwt>
<pdfrwt beam="1">  1        2 0.52466709E-01 0.36072270E+03</pdfrwt>
<pdfrwt beam="2">  1       -2 0.38751022E-01 0.36072270E+03</pdfrwt>
<totfact> 0.60413942E+02</totfact>
</mgrwt>
</event>
<event>
 6      1 +1.8175624e-03 5.30941400e+02 7.81860800e-03 1.00600400e-01
       -1 -1    0    0    0  501 -0.0000000000e+00 +0.0000000000e+00 +3.2420972809e+02 3.2420972813e+02 5.0400000000e-03 0.0000e+00 1.0000e+00
        1 -1    0    0  501    0 +0.0000000000e+00 -0.0000000000e+00 -2.1737377846e+02 2.1737377852e+02 5.0400000000e-03 0.0000e+00 -1.0000e+00
      -13  1    1    2    0    0 +1.5090898675e+02 -1.2812793218e+02 +1.1090652299e+02 2.2691530863e+02 1.0566000000e-01 0.0000e+00 1.0000e+00
       13  1    1    2    0    0 -4.3156403397e+01 +2.5496985428e+00 +7.2099462269e+01 8.4067352405e+01 1.0566000000e-01 0.0000e+00 1.0000e+00
      -13  1    1    2    0    0 -1.0958453261e+01 -3.1155957500e+01 -6.5510509526e+00 3.3670592781e+01 1.0566000000e-01 0.0000e+00 -1.0000e+00
       13  1    1    2    0    0 -9.6794130088e+01 +1.5673419113e+02 -6.9618984676e+01 1.9693025283e+02 1.0566000000e-01 0.0000e+00 -1.0000e+00
<mgrwt>
<rscale>  0 0.53094140E+03</rscale>
<asrwt>0</asrwt>
<pdfrwt beam="1">  1        1 0.54343445E-01 0.53094140E+03</pdfrwt>
<pdfrwt beam="2">  1       -1 0.81052432E-01 0.53094140E+03</pdfrwt>
<totfact> 0.11081522E+02</totfact>
</mgrwt>
</event>
<event>
 6      1 +1.8175624e-03 1.92883500e+02 7.81860800e-03 1.15588600e-01
        2 -1    0    0  501    0 +0.0000000000e+00 +0.0000000000e+00 +2.7839680869e+02 2.7839680870e+02 2.5500000000e-03 0.0000e+00 -1.0000e+00
       -2 -1    0    0    0  501 -0.0000000000e+00 -0.0000000000e+00 -3.3409180046e+01 3.3409180144e+01 2.5500000000e-03 0.0000e+00 1.0000e+00
      -13  1    1    2    0    0 +1.5731055226e+01 +1.2823986910e+01 +5.0358417861e+00 2.0911518484e+01 1.0566000000e-01 0.0000e+00 1.0000e+00
       13  1    1    2    0    0 -6.1977883806e+01 -6.4275620425e+00 +1.3519136601e+02 1.4885996185e+02 1.0566000000e-01 0.0000e+00 -1.0000e+00
      -13  1    1    2    0    0 +9.8315468174e+00 +1.4857877381e+01 -9.5365906618e+00 2.0208254714e+01 1.0566000000e-01 0.0000e+00 1.0000e+00
       13  1    1    2    0    0 +3.6415281762e+01 -2.1254302248e+01 +1.1429701151e+02 1.2182625380e+02 1.0566000000e-01 0.0000e+00 -1.0000e+00
<mgrwt>
<rscale>  0 0.19288348E+03</rscale>
<asrwt>0</asrwt>
<pdfrwt beam="1">  1        2 0.69599202E-01 0.19288348E+03</pdfrwt>
<pdfrwt beam="2">  1       -2 0.83522951E-02 0.19288348E+03</pdfrwt>
<totfact> 0.60199412E+03</totfact>
</mgrwt>
</event>
<event>
 6      1 +1.8175624e-03 6.43132700e+02 7.81860800e-03 9.81975100e-02
       -2 -1    0    0    0  501 -0.0000000000e+00 +0.0000000000e+00 +9.7079677593e+02 9.7079677594e+02 2.5500000000e-03 0.0000e+00 1.0000e+00
        2 -1    0    0  501    0 +0.0000000000e+00 -0.0000000000e+00 -1.0651552428e+02 1.0651552431e+02 2.5500000000e-03 0.0000e+00 -1.0000e+00
      -13  1    1    2    0    0 -1.0501381916e+02 -2.7005063455e+01 +5.8107466748e+01 1.2301896002e+02 1.0566000000e-01 0.0000e+00 1.0000e+00
       13  1    1    2    0    0 +9.9899542011e+01 +1.7891379067e+02 +1.4166770114e+02 2.4911806778e+02 1.0566000000e-01 0.0000e+00 -1.0000e+00
      -13  1    1    2    0    0 +1.2617337412e+01 -1.8710937968e+02 +6.2106722342e+02 6.4876314964e+02 1.0566000000e-01 0.0000e+00 1.0000e+00
       13  1    1    2    0    0 -7.5030602598e+00 +3.5200652462e+01 +4.3438860354e+01 5.6412122809e+01 1.0566000000e-01 0.0000e+00 -1.0000e+00
<mgrwt>
<rscale>  0 0.64313273E+03</rscale>
<asrwt>0</asrwt>
<pdfrwt beam="1">  1        2 0.26628881E-01 0.64313273E+03</pdfrwt>
<pdfrwt beam="2">  1       -2 0.24269919E+00 0.64313273E+03</pdfrwt>
<totfact> 0.15043615E+01</totfact>
</mgrwt>
</event>
<event>
 6      1 +1.8175624e-03 1.65384400e+02 7.81860800e-03 1.18274900e-01
       -1 -1    0    0    0  501 -0.0000000000e+00 +0.0000000000e+00 +1.6017580816e+02 1.6017580823e+02 5.0400000000e-03 0.0000e+00 1.0000e+00
        1 -1    0    0  501    0 +0.0000000000e+00 -0.0000000000e+00 -4.2690569874e+01 4.2690570171e+01 5.0400000000e-03 0.0000e+00 -1.0000e+00
      -13  1    1    2    0    0 +3.9840949457e+01 -2.2482892299e+01 +1.1910098035e+02 1.2758462441e+02 1.0566000000e-01 0.0000e+00 1.0000e+00
       13  1    1    2    0    0 -1.9761074796e+01 +1.4411043586e+01 +7.7029309936e+00 2.5642241795e+01 1.0566000000e-01 0.0000e+00 -1.0000e+00
      -13  1    1    2    0    0 +9.9000197154e+00 -7.2499615581e+00 +4.7384994390e+00 1.3154348100e+01 1.0566000000e-01 0.0000e+00 1.0000e+00
       13  1    1    2    0    0 -2.9979894377e+01 +1.5321810271e+01 -1.4057172505e+01 3.6485164104e+01 1.0566000000e-01 0.0000e+00 -1.0000e+00
<mgrwt>
<rscale>  0 0.16538436E+03</rscale>
<asrwt>0</asrwt>
<pdfrwt beam="1">  1        1 0.10672643E-01 0.16538436E+03</pdfrwt>
<pdfrwt beam="2">  1       -1 0.40043952E-01 0.16538436E+03</pdfrwt>
<totfact> 0.35176772E+03</totfact>
</mgrwt>
</event>
<event>
 6      1 +1.8175624e-03 5.26975500e+02 7.81860800e-03 1.00696800e-01
        2 -1    0    0  501    0 +0.0000000000e+00 +0.0000000000e+00 +2.5535963592e+02 2.5535963594e+02 2.5500000000e-03 0.0000e+00 -1.0000e+00
       -2 -1    0    0    0  501 -0.0000000000e+00 -0.0000000000e+00 -2.7187458005e+02 2.7187458006e+02 2.5500000000e-03 0.0000e+00 1.0000e+00
      -13  1    1    2    0    0 +1.2148797355e+02 -4.0589530945e+01 -9.0715288648e+01 1.5695895164e+02 1.0566000000e-01 0.0000e+00 1.0000e+00
       13  1    1    2    0    0 -1.4126264542e+02 -1.0754390759e+02 +6.7237814007e+01 1.8984667984e+02 1.0566000000e-01 0.0000e+00 -1.0000e+00
      -13  1    1    2    0    0 -4.2862556773e+00 +6.9368288260e+01 +5.1776879901e+01 8.6667109449e+01 1.0566000000e-01 0.0000e+00 -1.0000e+00
       13  1    1    2    0    0 +2.4060927542e+01 +7.8765150279e+01 -4.4814349382e+01 9.3761475069e+01 1.0566000000e-01 0.0000e+00 1.0000e+00
<mgrwt>
<rscale>  0 0.52697550E+03</rscale>
<asrwt>0</asrwt>
<pdfrwt beam="1">  1        2 0.63839909E-01 0.52697550E+03</pdfrwt>
<pdfrwt beam="2">  1       -2 0.67968645E-01 0.52697550E+03</pdfrwt>
<totfact> 0.15435559E+02</totfact>
</mgrwt>
</event>
<event>
 6      1 +1.8175624e-03 2.18667000e+02 7.81860800e-03 1.13488100e-01
       -2 -1    0    0    0  501 -0.0000000000e+00 +0.0000000000e+00 +1.4597860903e+02 1.4597860905e+02 2.5500000000e-03 0.0000e+00 -1.0000e+00
        2 -1    0    0  501    0 +0.0000000000e+00 -0.0000000000e+00 -8.1887462926e+01 8.1887462965e+01 2.5500000000e-03 0.0000e+00 1.0000e+00
      -13  1    1    2    0    0 +1.2119275661e+01 +8.5479133228e+00 +7.7338321224e+01 7.8747512713e+01 1.0566000000e-01 0.0000e+00 -1.0000e+00
       13  1    1    2    0    0 -2.8178874193e+01 -1.2868958418e+00 -1.8460098103e+01 3.3711888670e+01 1.0566000000e-01 0.0000e+00 1.0000e+00
      -13  1    1    2    0    0 +5.1290445445e+01 +2.6090639331e+01 +2.5348185310e+01 6.2880624338e+01 1.0566000000e-01 0.0000e+00 -1.0000e+00
       13  1    1    2    0    0 -3.5230846913e+01 -3.3351656811e+01 -2.0135262329e+01 5.2526046295e+01 1.0566000000e-01 0.0000e+00 1.0000e+00
<mgrwt>
<rscale>  0 0.21866703E+03</rscale>
<asrwt>0</asrwt>
<pdfrwt beam="1">  1        2 0.20471866E-01 0.21866703E+03</pdfrwt>
<pdfrwt beam="2">  1       -2 0.36494652E-01 0.21866703E+03</pdfrwt>
<totfact> 0.19002396E+03</totfact>
</mgrwt>
</event>
<event>
 6      1 +1.8175624e-03 2.78690500e+02 7.81860800e-03 1.09640600e-01
        2 -1    0    0  501    0 +0.0000000000e+00 +0.0000000000e+00 +4.1044392117e+02 4.1044392118e+02 2.5500000000e-03 0.0000e+00 1.0000e+00
       -2 -1    0    0    0  501 -0.0000000000e+00 -0.0000000000e+00 -4.7307561256e+01 4.7307561324e+01 2.5500000000e-03 0.0000e+00 -1.0000e+00
      -13  1    1    2    0    0 -6.6499935870e+01 +3.5370016266e+01 +6.1479691803e+01 9.7226761694e+01 1.0566000000e-01 0.0000e+00 -1.0000e+00
       13  1    1    2    0    0 +6.7624035969e+01 -5.1731047430e+01 +1.9124527685e+02 2.0934153575e+02 1.0566000000e-01 0.0000e+00 1.0000e+00
      -13  1    1    2    0    0 +6.6617999403e-01 +4.7029762881e+01 +1.2646535147e+01 4.8705116853e+01 1.0566000000e-01 0.0000e+00 -1.0000e+00
       13  1    1    2    0    0 -1.7902800925e+00 -3.0668731716e+01 +9.7764856114e+01 1.0247806820e+02 1.0566000000e-01 0.0000e+00 1.0000e+00
<mgrwt>
<rscale>  0 0.27869052E+03</rscale>
<asrwt>0</asrwt>
<pdfrwt beam="1">  1        2 0.10261098E+00 0.27869052E+03</pdfrwt>
<pdfrwt beam="2">  1       -2 0.11826890E-01 0.27869052E+03</pdfrwt>
<totfact> 0.22488543E+03</totfact>
</mgrwt>
</event>
<event>
 6      1 +1.8175624e-03 4.76942200e+02 7.81860800e-03 1.01997900e-01
        1 -1    0    0  501    0 +0.0000000000e+00 +0.0000000000e+00 +6.2398328233e+02 6.2398328235e+02 5.0400000000e-03 0.0000e+00 1.0000e+00
       -1 -1    0    0    0  501 -0.0000000000e+00 -0.0000000000e+00 -9.1137817039e+01 9.1137817179e+01 5.0400000000e-03 0.0000e+00 -1.0000e+00
      -13  1    1    2    0    0 +3.0378526673e+01 +2.3582361485e+01 -5.8845612235e+01 7.0297936665e+01 1.0566000000e-01 0.0000e+00 -1.0000e+00
       13  1    1    2    0    0 +3.1442279390e+01 -3.8636258952e+01 +2.0804612638e+01 5.3983520727e+01 1.0566000000e-01 0.0000e+00 1.0000e+00
      -13  1    1    2    0    0 +2.4041088092e+01 -2.0800950933e+01 +3.6459942143e+01 4.8373464022e+01 1.0566000000e-01 0.0000e+00 -1.0000e+00
       13  1    1    2    0    0 -8.5861894154e+01 +3.5854848400e+01 +5.3442652274e+02 5.4246617811e+02 1.0566000000e-01 0.0000e+00 1.0000e+00
<mgrwt>
<rscale>  0 0.47694224E+03</rscale>
<asrwt>0</asrwt>
<pdfrwt beam="1">  1        1 0.15599582E+00 0.47694224E+03</pdfrwt>
<pdfrwt beam="2">  1       -1 0.22784455E-01 0.47694224E+03</pdfrwt>
<totfact> 0.24995938E+02</totfact>
</mgrwt>
</event>
<event>
 7      1 +1.8175624e-03 9.05976000e+01 7.81860800e-03 1.30141100e-01
        4 -1    0    0  501    0 +0.0000000000e+00 +0.0000000000e+00 +4.0115965709e+01 4.0136063643e+01 1.2700000000e+00 0.0000e+00 -1.0000e+00
       -4 -1    0    0    0  501 -0.0000000000e+00 -0.0000000000e+00 -5.1110442726e+01 5.1126218867e+01 1.2700000000e+00 0.0000e+00 1.0000e+00
       23  2    1    2    0    0 -1.7763568394e-15 +1.1102230246e-15 -1.0994477018e+01 9.1262282510e+01 9.0597603081e+01 0.0000e+00 0.0000e+00
      -13  1    3    3    0    0 +1.0675963959e+01 -1.0474333418e+00 -2.7807914431e+01 2.9805445678e+01 1.0566000000e-01 0.0000e+00 1.0000e+00
       13  1    3    3    0    0 +8.2208497920e-01 -2.0231523396e+01 +1.7454835860e+01 2.6733365325e+01 1.0566000000e-01 0.0000e+00 -1.0000e+00
      -13  1    3    3    0    0 +6.5387279304e+00 +1.0127624949e+01 -5.0393298769e+00 1.3066359849e+01 1.0566000000e-01 0.0000e+00 1.0000e+00
       13  1    3    3    0    0 -1.8036776868e+01 +1.1151331789e+01 +4.3979314297e+00 2.1657111658e+01 1.0566000000e-01 0.0000e+00 -1.0000e+00
<mgrwt>
<rscale>  0 0.90597603E+02</rscale>
<asrwt>0</asrwt>
<pdfrwt beam="1">  1        4 0.10033476E-01 0.90597603E+02</pdfrwt>
<pdfrwt beam="2">  1       -4 0.12782095E-01 0.90597603E+02</pdfrwt>
<totfact> 0.55052447E+03</totfact>
</mgrwt>
</event>
<event>
 6      1 +1.8175624e-03 3.14211100e+02 7.81860800e-03 1.07834500e-01
       -2 -1    0    0    0  501 -0.0000000000e+00 +0.0000000000e+00 +6.5730730474e+01 6.5730730524e+01 2.5500000000e-03 0.0000e+00 -1.0000e+00
        2 -1    0    0  501    0 +0.0000000000e+00 -0.0000000000e+00 -3.7550407152e+02 3.7550407153e+02 2.5500000000e-03 0.0000e+00 1.0000e+00
      -13  1    1    2    0    0 -6.3105955614e+00 -3.9430469620e+01 +2.3661568185e+01 4.6416231253e+01 1.0566000000e-01 0.0000e+00 -1.0000e+00
       13  1    1    2    0    0 +2.0902735470e+01 +8.9280775182e+01 -2.3980290565e+02 2.5673610165e+02 1.0566000000e-01 0.0000e+00 1.0000e+00
      -13  1    1    2    0    0 +2.9635193860e+01 -3.3093606395e+00 -7.6696928810e+00 3.0790127247e+01 1.0566000000e-01 0.0000e+00 1.0000e+00
       13  1    1    2    0    0 -4.4227333769e+01 -4.6540944923e+01 -8.5962310703e+01 1.0729234191e+02 1.0566000000e-01 0.0000e+00 -1.0000e+00
<mgrwt>
<rscale>  0 0.31421112E+03</rscale>
<asrwt>0</asrwt>
<pdfrwt beam="1">  1        2 0.93876012E-01 0.31421112E+03</pdfrwt>
<pdfrwt beam="2">  1       -2 0.16432684E-01 0.31421112E+03</pdfrwt>
<totfact> 0.14551149E+03</totfact>
</mgrwt>
</event>
<event>
 6      1 +1.8175624e-03 3.50533800e+02 7.81860800e-03 1.06239600e-01
        1 -1    0    0  501    0 +0.0000000000e+00 +0.0000000000e+00 +6.8418538368e+02 6.8418538370e+02 5.0400000000e-03 0.0000e+00 1.0000e+00
       -1 -1    0    0    0  501 -0.0000000000e+00 -0.0000000000e+00 -4.4897908603e+01 4.4897908886e+01 5.0400000000e-03 0.0000e+00 -1.0000e+00
      -13  1    1    2    0    0 +2.0794888028e+01 +5.4687646189e+00 +1.4842658667e+01 2.6127579966e+01 1.0566000000e-01 0.0000e+00 -1.0000e+00
       13  1    1    2    0    0 -5.4750802483e+01 -5.7237744765e+01 +1.2318318223e+02 1.4645107493e+02 1.0566000000e-01 0.0000e+00 -1.0000e+00
      -13  1    1    2    0    0 -1.1908394164e+01 -5.1795841762e+01 +1.2241823131e+01 5.4538907883e+01 1.0566000000e-01 0.0000e+00 1.0000e+00
       13  1    1    2    0    0 +4.5864308619e+01 +1.0356482191e+02 +4.8901981105e+02 5.0196572981e+02 1.0566000000e-01 0.0000e+00 1.0000e+00
<mgrwt>
<rscale>  0 0.35053384E+03</rscale>
<asrwt>0</asrwt>
<pdfrwt beam="1">  1        1 0.17104635E+00 0.35053384E+03</pdfrwt>
<pdfrwt beam="2">  1       -1 0.11224477E-01 0.35053384E+03</pdfrwt>
<totfact> 0.67137009E+02</totfact>
</mgrwt>
</event>
<event>
 6      1 +1.8175624e-03 6.38634400e+02 7.81860800e-03 9.82834300e-02
       -2 -1    0    0    0  501 -0.0000000000e+00 +0.0000000000e+00 +1.1161321481e+02 1.1161321484e+02 2.5500000000e-03 0.0000e+00 1.0000e+00
        2 -1    0    0  501    0 +0.0000000000e+00 -0.0000000000e+00 -9.1354294078e+02 9.1354294078e+02 2.5500000000e-03 0.0000e+00 -1.0000e+00
      -13  1    1    2    0    0 +4.5461443768e+01 -1.2672991825e+02 -2.2446836189e+02 2.6175039962e+02 1.0566000000e-01 0.0000e+00 1.0000e+00
       13  1    1    2    0    0 -8.0366506593e+01 -2.8941143814e+01 -1.2330797182e+01 8.6304257777e+01 1.0566000000e-01 0.0000e+00 1.0000e+00
      -13  1    1    2    0    0 -6.1262215079e+01 -8.3050116742e+01 -9.0849389943e+01 1.3749183141e+02 1.0566000000e-01 0.0000e+00 -1.0000e+00
       13  1    1    2    0    0 +9.6167277905e+01 +2.3872117880e+02 -4.7428117695e+02 5.3960966681e+02 1.0566000000e-01 0.0000e+00 -1.0000e+00
<mgrwt>
<rscale>  0 0.63863437E+03</rscale>
<asrwt>0</asrwt>
<pdfrwt beam="1">  1        2 0.22838571E+00 0.63863437E+03</pdfrwt>
<pdfrwt beam="2">  1       -2 0.27903306E-01 0.63863437E+03</pdfrwt>
<totfact> 0.15577783E+02</totfact>
</mgrwt>
</event>
<event>
 6      1 +1.8175624e-03 2.05795200e+02 7.81860800e-03 1.14494000e-01
        2 -1    0    0  501    0 +0.0000000000e+00 +0.0000000000e+00 +3.9292721603e+02 3.9292721604e+02 2.5500000000e-03 0.0000e+00 1.0000e+00
       -2 -1    0    0    0  501 -0.0000000000e+00 -0.0000000000e+00 -2.6946256311e+01 2.6946256432e+01 2.5500000000e-03 0.0000e+00 -1.0000e+00
      -13  1    1    2    0    0 -2.4553244573e+00 -3.2485776279e+01 -3.8886439328e-01 3.2580924760e+01 1.0566000000e-01 0.0000e+00 -1.0000e+00
       13  1    1    2    0    0 -1.4689275479e+01 +5.9342584435e+00 +7.3028171678e+01 7.4726937981e+01 1.0566000000e-01 0.0000e+00 1.0000e+00
      -13  1    1    2    0    0 -5.4200366381e+00 +6.1105430874e+01 +2.2018848370e+02 2.2857434238e+02 1.0566000000e-01 0.0000e+00 1.0000e+00
       13  1    1    2    0    0 +2.2564636575e+01 -3.4553913038e+01 +7.3153168742e+01 8.3991267350e+01 1.0566000000e-01 0.0000e+00 -1.0000e+00
<mgrwt>
<rscale>  0 0.20579521E+03</rscale>
<asrwt>0</asrwt>
<pdfrwt beam="1">  1        2 0.98231803E-01 0.20579521E+03</pdfrwt>
<pdfrwt beam="2">  1       -2 0.67365642E-02 0.20579521E+03</pdfrwt>
<totfact> 0.57095232E+03</totfact>
</mgrwt>
</event>
<event>
 6      1 +1.8175624e-03 2.28008000e+02 7.81860800e-03 1.12805000e-01
        1 -1    0    0  501    0 +0.0000000000e+00 +0.0000000000e+00 +1.2757805053e+02 1.2757805063e+02 5.0400000000e-03 0.0000e+00 -1.0000e+00
       -1 -1    0    0    0  501 -0.0000000000e+00 -0.0000000000e+00 -1.0187420510e+02 1.0187420523e+02 5.0400000000e-03 0.0000e+00 1.0000e+00
      -13  1    1    2    0    0 +4.7492455089e+01 +3.0539411529e+01 -3.3963056688e+01 6.5891496648e+01 1.0566000000e-01 0.0000e+00 1.0000e+00
       13  1    1    2    0    0 -5.1855214125e+01 -2.0464507663e+00 +2.9014153752e+01 5.9455727013e+01 1.0566000000e-01 0.0000e+00 -1.0000e+00
      -13  1    1    2    0    0 +1.4366753979e+01 +2.4835456807e+01 -1.5732137126e+01 3.2721779250e+01 1.0566000000e-01 0.0000e+00 1.0000e+00
       13  1    1    2    0    0 -1.0003994943e+01 -5.3328417570e+01 +4.6384885486e+01 7.1383252944e+01 1.0566000000e-01 0.0000e+00 -1.0000e+00
<mgrwt>
<rscale>  0 0.22800800E+03</rscale>
<asrwt>0</asrwt>
<pdfrwt beam="1">  1        1 0.31894513E-01 0.22800800E+03</pdfrwt>
<pdfrwt beam="2">  1       -1 0.25468551E-01 0.22800800E+03</pdfrwt>
<totfact> 0.18782782E+03</totfact>
</mgrwt>
</event>
<event>
 6      1 +1.8175624e-03 9.41261300e+02 7.81860800e-03 9.37542400e-02
       -2 -1    0    0    0  501 -0.0000000000e+00 +0.0000000000e+00 +9.8915083034e+01 9.8915083066e+01 2.5500000000e-03 0.0000e+00 1.0000e+00
        2 -1    0    0  501    0 +0.0000000000e+00 -0.0000000000e+00 -2.2392257364e+03 2.2392257364e+03 2.5500000000e-03 0.0000e+00 -1.0000e+00
      -13  1    1    2    0    0 +3.5483928411e+02 -9.3393349662e+01 -4.1188625044e+02 5.5161900781e+02 1.0566000000e-01 0.0000e+00 1.0000e+00
       13  1    1    2    0    0 -1.4929433995e+02 -5.4325854365e+01 -9.2738132636e+02 9.4089119140e+02 1.0566000000e-01 0.0000e+00 -1.0000e+00
      -13  1    1    2    0    0 -8.3744790973e+01 +7.0257619031e+01 -4.9947674348e+02 5.1129869106e+02 1.0566000000e-01 0.0000e+00 -1.0000e+00
       13  1    1    2    0    0 -1.2180015319e+02 +7.7461584997e+01 -3.0156633312e+02 3.3433192923e+02 1.0566000000e-01 0.0000e+00 1.0000e+00
<mgrwt>
<rscale>  0 0.94126128E+03</rscale>
<asrwt>0</asrwt>
<pdfrwt beam="1">  1        2 0.55980627E+00 0.94126128E+03</pdfrwt>
<pdfrwt beam="2">  1       -2 0.24728778E-01 0.94126128E+03</pdfrwt>
<totfact> 0.99369157E+00</totfact>
</mgrwt>
</event>
<event>
 6      1 +1.8175624e-03 8.67731500e+02 7.81860800e-03 9.46684300e-02
       -1 -1    0    0    0  501 -0.0000000000e+00 +0.0000000000e+00 +4.1149221743e+02 4.1149221746e+02 5.0400000000e-03 0.0000e+00 1.0000e+00
        1 -1    0    0  501    0 +0.0000000000e+00 -0.0000000000e+00 -4.5745577588e+02 4.5745577591e+02 5.0400000000e-03 0.0000e+00 -1.0000e+00
      -13  1    1    2    0    0 +1.0654301377e+02 -3.3186412279e+02 +1.0187383808e+02 3.6313014172e+02 1.0566000000e-01 0.0000e+00 1.0000e+00
       13  1    1    2    0    0 -2.5983729721e+01 -4.4216369911e+01 -1.0409943262e+02 1.1604716547e+02 1.0566000000e-01 0.0000e+00 -1.0000e+00
      -13  1    1    2    0    0 -7.9367005094e+00 +2.7309971004e+01 +8.5620691149e+00 2.9700941446e+01 1.0566000000e-01 0.0000e+00 1.0000e+00
       13  1    1    2    0    0 -7.2622583542e+01 +3.4877052170e+02 -5.2300033029e+01 3.6006974472e+02 1.0566000000e-01 0.0000e+00 -1.0000e+00
<mgrwt>
<rscale>  0 0.86773151E+03</rscale>
<asrwt>0</asrwt>
<pdfrwt beam="1">  1        1 0.11436394E+00 0.86773151E+03</pdfrwt>
<pdfrwt beam="2">  1       -1 0.10287305E+00 0.86773151E+03</pdfrwt>
<totfact> 0.22488360E+01</totfact>
</mgrwt>
</event>
<event>
 6      1 +1.8175624e-03 3.33427800e+02 7.81860800e-03 1.06963000e-01
        2 -1    0    0  501    0 +0.0000000000e+00 +0.0000000000e+00 +3.0395803083e+02 3.0395803085e+02 2.5500000000e-03 0.0000e+00 -1.0000e+00
       -2 -1    0    0    0  501 -0.0000000000e+00 -0.0000000000e+00 -9.1438692430e+01 9.1438692466e+01 2.5500000000e-03 0.0000e+00 1.0000e+00
      -13  1    1    2    0    0 -6.1713744081e+01 +4.4553018489e+01 +1.6045557940e+01 7.7788358760e+01 1.0566000000e-01 0.0000e+00 1.0000e+00
       13  1    1    2    0    0 +2.9829764933e+01 -9.2561034985e+01 +1.7417334286e+02 1.9948364495e+02 1.0566000000e-01 0.0000e+00 -1.0000e+00
      -13  1    1    2    0    0 -2.4118956534e+00 -2.2906331255e+01 -1.8380436184e+01 2.9468098862e+01 1.0566000000e-01 0.0000e+00 1.0000e+00
       13  1    1    2    0    0 +3.4295874801e+01 +7.0914347751e+01 +4.0680873785e+01 8.8656620741e+01 1.0566000000e-01 0.0000e+00 -1.0000e+00
<mgrwt>
<rscale>  0 0.33342780E+03</rscale>
<asrwt>0</asrwt>
<pdfrwt beam="1">  1        2 0.75989507E-01 0.33342780E+03</pdfrwt>
<pdfrwt beam="2">  1       -2 0.22859673E-01 0.33342780E+03</pdfrwt>
<totfact> 0.10537016E+03</totfact>
</mgrwt>
</event>
<event>
 6      1 +1.8175624e-03 2.97663500e+02 7.81860800e-03 1.08641400e-01
        2 -1    0    0  501    0 +0.0000000000e+00 +0.0000000000e+00 +1.0584350686e+02 1.0584350689e+02 2.5500000000e-03 0.0000e+00 -1.0000e+00
       -2 -1    0    0    0  501 -0.0000000000e+00 -0.0000000000e+00 -2.0927958133e+02 2.0927958134e+02 2.5500000000e-03 0.0000e+00 1.0000e+00
      -13  1    1    2    0    0 +3.6855059258e+01 +5.5232488144e+01 +7.1371380544e+00 6.6782280907e+01 1.0566000000e-01 0.0000e+00 1.0000e+00
       13  1    1    2    0    0 -4.4114698162e+01 +6.9450675870e+01 -6.3212951562e+01 1.0375640405e+02 1.0566000000e-01 0.0000e+00 -1.0000e+00
      -13  1    1    2    0    0 +2.0558753356e+00 -6.3209925479e+01 -5.3161759039e+01 8.2619035885e+01 1.0566000000e-01 0.0000e+00 1.0000e+00
       13  1    1    2    0    0 +5.2037635683e+00 -6.1473238536e+01 +5.8014980747e+00 6.1965367386e+01 1.0566000000e-01 0.0000e+00 -1.0000e+00
<mgrwt>
<rscale>  0 0.29766347E+03</rscale>
<asrwt>0</asrwt>
<pdfrwt beam="1">  1        2 0.26460877E-01 0.29766347E+03</pdfrwt>
<pdfrwt beam="2">  1       -2 0.52319895E-01 0.29766347E+03</pdfrwt>
<totfact> 0.70917594E+02</totfact>
</mgrwt>
</event>
<event>
 6      1 +1.8175624e-03 8.35737800e+02 7.81860800e-03 9.50968200e-02
        2 -1    0    0  501    0 +0.0000000000e+00 +0.0000000000e+00 +6.5957688878e+02 6.5957688879e+02 2.5500000000e-03 0.0000e+00 -1.0000e+00
       -2 -1    0    0    0  501 -0.0000000000e+00 -0.0000000000e+00 -2.6473702453e+02 2.6473702454e+02 2.5500000000e-03 0.0000e+00 1.0000e+00
      -13  1    1    2    0    0 +2.1607138628e+02 -1.4333862067e+02 -1.1561536090e+02 2.8390091050e+02 1.0566000000e-01 0.0000e+00 1.0000e+00
       13  1    1    2    0    0 -5.5899596300e+01 -1.4349877509e+01 -4.1157582981e+00 5.7858745937e+01 1.0566000000e-01 0.0000e+00 -1.0000e+00
      -13  1    1    2    0    0 -7.6881245152e+01 -9.1122176957e+00 +2.2695703219e+02 2.3979838196e+02 1.0566000000e-01 0.0000e+00 1.0000e+00
       13  1    1    2    0    0 -8.3290544827e+01 +1.6680071588e+02 +2.8761395126e+02 3.4275587493e+02 1.0566000000e-01 0.0000e+00 -1.0000e+00
<mgrwt>
<rscale>  0 0.83573781E+03</rscale>
<asrwt>0</asrwt>
<pdfrwt beam="1">  1        2 0.16489422E+00 0.83573781E+03</pdfrwt>
<pdfrwt beam="2">  1       -2 0.66184256E-01 0.83573781E+03</pdfrwt>
<totfact> 0.48051249E+01</totfact>
</mgrwt>
</event>
<event>
 6      1 +1.8175624e-03 2.75215900e+02 7.81860800e-03 1.09833100e-01
        2 -1    0    0  501    0 +0.0000000000e+00 +0.0000000000e+00 +4.8254335805e+02 4.8254335806e+02 2.5500000000e-03 0.0000e+00 -1.0000e+00
       -2 -1    0    0    0  501 -0.0000000000e+00 -0.0000000000e+00 -3.9241955090e+01 3.9241955173e+01 2.5500000000e-03 0.0000e+00 1.0000e+00
      -13  1    1    2    0    0 -3.2266525678e+01 +4.7567529164e+01 +6.1022485495e+01 8.3830504055e+01 1.0566000000e-01 0.0000e+00 1.0000e+00
       13  1    1    2    0    0 -3.4458119328e+01 -2.9914407816e+01 +2.7390025038e+02 2.7767533579e+02 1.0566000000e-01 0.0000e+00 -1.0000e+00
      -13  1    1    2    0    0 +3.9675929440e+01 -4.3235023021e+01 +1.6214845757e+01 6.0880037611e+01 1.0566000000e-01 0.0000e+00 -1.0000e+00
       13  1    1    2    0    0 +2.7048715565e+01 +2.5581901673e+01 +9.2163821330e+01 9.9399435778e+01 1.0566000000e-01 0.0000e+00 1.0000e+00
<mgrwt>
<rscale>  0 0.27521588E+03</rscale>
<asrwt>0</asrwt>
<pdfrwt beam="1">  1        2 0.12063584E+00 0.27521588E+03</pdfrwt>
<pdfrwt beam="2">  1       -2 0.98104889E-02 0.27521588E+03</pdfrwt>
<totfact> 0.24863992E+03</totfact>
</mgrwt>
</event>
<event>
 6      1 +1.8175624e-03 3.33037900e+02 7.81860800e-03 1.06980100e-01
        2 -1    0    0  501    0 +0.0000000000e+00 +0.0000000000e+00 +1.4938801347e+02 1.4938801349e+02 2.5500000000e-03 0.0000e+00 -1.0000e+00
       -2 -1    0    0    0  501 -0.0000000000e+00 -0.0000000000e+00 -1.8561433896e+02 1.8561433898e+02 2.5500000000e-03 0.0000e+00 1.0000e+00
      -13  1    1    2    0    0 +3.3143885875e+01 +1.1387131439e+01 -1.9016002871e+01 3.9872339566e+01 1.0566000000e-01 0.0000e+00 1.0000e+00
       13  1    1    2    0    0 -2.1443859837e+00 +7.1221334199e+01 +7.5580866620e+01 1.0387278469e+02 1.0566000000e-01 0.0000e+00 -1.0000e+00
      -13  1    1    2    0    0 -2.0909673096e+01 +1.6227544949e+01 -8.7887478620e+01 9.1786533360e+01 1.0566000000e-01 0.0000e+00 1.0000e+00
       13  1    1    2    0    0 -1.0089826795e+01 -9.8836010587e+01 -4.9037106233e+00 9.9470694857e+01 1.0566000000e-01 0.0000e+00 -1.0000e+00
<mgrwt>
<rscale>  0 0.33303788E+03</rscale>
<asrwt>0</asrwt>
<pdfrwt beam="1">  1        2 0.37347004E-01 0.33303788E+03</pdfrwt>
<pdfrwt beam="2">  1       -2 0.46403585E-01 0.33303788E+03</pdfrwt>
<totfact> 0.61642526E+02</totfact>
</mgrwt>
</event>
<event>
 6      1 +1.8175624e-03 5.44851700e+02 7.81860800e-03 1.00269300e-01
        2 -1    0    0  501    0 +0.0000000000e+00 +0.0000000000e+00 +3.4807112381e+02 3.4807112382e+02 2.5500000000e-03 0.0000e+00 -1.0000e+00
       -2 -1    0    0    0  501 -0.0000000000e+00 -0.0000000000e+00 -2.1322032648e+02 2.1322032650e+02 2.5500000000e-03 0.0000e+00 1.0000e+00
      -13  1    1    2    0    0 -2.9936650648e+01 +1.6614395349e+01 +8.7528852555e+01 9.3986979834e+01 1.0566000000e-01 0.0000e+00 1.0000e+00
       13  1    1    2    0    0 +5.0517491862e+01 -1.0615855708e+01 +1.8793287471e+02 1.9489353487e+02 1.0566000000e-01 0.0000e+00 -1.0000e+00
      -13  1    1    2    0    0 -2.1905393479e+01 -8.3884758377e+01 -1.6864288988e+02 1.8962313789e+02 1.0566000000e-01 0.0000e+00 1.0000e+00
       13  1    1    2    0    0 +1.3245522651e+00 +7.7886218736e+01 +2.8031959947e+01 8.2787797714e+01 1.0566000000e-01 0.0000e+00 -1.0000e+00
<mgrwt>
<rscale>  0 0.54485168E+03</rscale>
<asrwt>0</asrwt>
<pdfrwt beam="1">  1        2 0.87017781E-01 0.54485168E+03</pdfrwt>
<pdfrwt beam="2">  1       -2 0.53305082E-01 0.54485168E+03</pdfrwt>
<totfact> 0.18029047E+02</totfact>
</mgrwt>
</event>
<event>
 6      1 +1.8175624e-03 1.06591500e+03 7.81860800e-03 9.23906500e-02
       -1 -1    0    0    0  501 -0.0000000000e+00 +0.0000000000e+00 +2.8366579189e+02 2.8366579194e+02 5.0400000000e-03 0.0000e+00 1.0000e+00
        1 -1    0    0  501    0 +0.0000000000e+00 -0.0000000000e+00 -1.0013327975e+03 1.0013327975e+03 5.0400000000e-03 0.0000e+00 -1.0000e+00
      -13  1    1    2    0    0 -9.2161114558e+01 -6.8754916954e+01 +1.9669250582e+02 2.2783516553e+02 1.0566000000e-01 0.0000e+00 1.0000e+00
       13  1    1    2    0    0 -1.2985649479e+02 +1.9732444778e+02 -5.6628501315e+02 6.1357833584e+02 1.0566000000e-01 0.0000e+00 -1.0000e+00
      -13  1    1    2    0    0 +5.6053914614e+01 -6.4710825408e+01 -5.8231147512e+01 1.0353941266e+02 1.0566000000e-01 0.0000e+00 -1.0000e+00
       13  1    1    2    0    0 +1.6596369473e+02 -6.3858705420e+01 -2.8984335072e+02 3.4004567539e+02 1.0566000000e-01 0.0000e+00 1.0000e+00
<mgrwt>
<rscale>  0 0.10659153E+04</rscale>
<asrwt>0</asrwt>
<pdfrwt beam="1">  1        1 0.25033319E+00 0.10659153E+04</pdfrwt>
<pdfrwt beam="2">  1       -1 0.70916450E-01 0.10659153E+04</pdfrwt>
<totfact> 0.10737655E+01</totfact>
</mgrwt>
</event>
<event>
 7      1 +1.8175624e-03 8.93167800e+01 7.81860800e-03 1.30451500e-01
        3 -1    0    0  501    0 +0.0000000000e+00 +0.0000000000e+00 +5.7517227737e+01 5.7517316415e+01 1.0100000000e-01 0.0000e+00 -1.0000e+00
       -3 -1    0    0    0  501 -0.0000000000e+00 -0.0000000000e+00 -3.4674147226e+01 3.4674294324e+01 1.0100000000e-01 0.0000e+00 1.0000e+00
       23  2    1    2    0    0 +0.0000000000e+00 -8.6736173799e-16 +2.2843080511e+01 9.2191610739e+01 8.9316777614e+01 0.0000e+00 0.0000e+00
      -13  1    3    3    0    0 -1.5780370358e+01 -2.9382834259e+00 +3.3622952819e+01 3.7258122851e+01 1.0566000000e-01 0.0000e+00 -1.0000e+00
       13  1    3    3    0    0 -1.0084582294e+01 -1.0267185991e+01 -5.0041438098e+00 1.5237011765e+01 1.0566000000e-01 0.0000e+00 1.0000e+00
      -13  1    3    3    0    0 +1.3920724732e+01 +1.3245384119e+01 -1.5184645687e+01 2.4491047471e+01 1.0566000000e-01 0.0000e+00 1.0000e+00
       13  1    3    3    0    0 +1.1944227920e+01 -3.9914701969e-02 +9.4089171894e+00 1.5205428652e+01 1.0566000000e-01 0.0000e+00 -1.0000e+00
<mgrwt>
<rscale>  0 0.89316778E+02</rscale>
<asrwt>0</asrwt>
<pdfrwt beam="1">  1        3 0.14379336E-01 0.89316778E+02</pdfrwt>
<pdfrwt beam="2">  1       -3 0.86685664E-02 0.89316778E+02</pdfrwt>
<totfact> 0.77081117E+03</totfact>
</mgrwt>
</event>
<event>
 6      1 +1.8175624e-03 4.55429600e+02 7.81860800e-03 1.02611500e-01
       -1 -1    0    0    0  501 -0.0000000000e+00 +0.0000000000e+00 +9.9864011511e+01 9.9864011638e+01 5.0400000000e-03 0.0000e+00 -1.0000e+00
        1 -1    0    0  501    0 +0.0000000000e+00 -0.0000000000e+00 -5.1924639492e+02 5.1924639495e+02 5.0400000000e-03 0.0000e+00 1.0000e+00
      -13  1    1    2    0    0 +4.0422684036e+01 -1.9414731378e+01 +4.6429710778e+01 6.4549627313e+01 1.0566000000e-01 0.0000e+00 -1.0000e+00
       13  1    1    2    0    0 +7.6605976073e+01 -4.6246164240e+01 -3.9278166240e+01 9.7723941715e+01 1.0566000000e-01 0.0000e+00 1.0000e+00
      -13  1    1    2    0    0 -1.1561157422e+02 +4.0561103911e+01 -4.0687861633e+02 4.2492523912e+02 1.0566000000e-01 0.0000e+00 1.0000e+00
       13  1    1    2    0    0 -1.4170858859e+00 +2.5099791708e+01 -1.9655311615e+01 3.1911598438e+01 1.0566000000e-01 0.0000e+00 -1.0000e+00
<mgrwt>
<rscale>  0 0.45542959E+03</rscale>
<asrwt>0</asrwt>
<pdfrwt beam="1">  1        1 0.12981159E+00 0.45542959E+03</pdfrwt>
<pdfrwt beam="2">  1       -1 0.24966004E-01 0.45542959E+03</pdfrwt>
<totfact> 0.29284163E+02</totfact>
</mgrwt>
</event>
<event>
 6      1 +1.8175624e-03 3.49434800e+02 7.81860800e-03 1.06284700e-01
        2 -1    0    0  501    0 +0.0000000000e+00 +0.0000000000e+00 +1.4738639912e+03 1.4738639912e+03 2.5500000000e-03 0.0000e+00 -1.0000e+00
       -2 -1    0    0    0  501 -0.0000000000e+00 -0.0000000000e+00 -2.0711660652e+01 2.0711660809e+01 2.5500000000e-03 0.0000e+00 1.0000e+00
      -13  1    1    2    0    0 -6.8202486657e+00 -3.7448402512e+01 +7.7608582560e+01 8.6440742093e+01 1.0566000000e-01 0.0000e+00 1.0000e+00
       13  1    1    2    0    0 +2.7358899546e+01 -9.0899605447e-02 +7.5219045220e+01 8.0040199743e+01 1.0566000000e-01 0.0000e+00 -1.0000e+00
      -13  1    1    2    0    0 -6.1941751683e+01 -1.0299803481e+02 +4.8204412199e+02 4.9680169332e+02 1.0566000000e-01 0.0000e+00 1.0000e+00
       13  1    1    2    0    0 +4.1403100802e+01 +1.4053733693e+02 +8.1828058077e+02 8.3129301685e+02 1.0566000000e-01 0.0000e+00 -1.0000e+00
<mgrwt>
<rscale>  0 0.34943481E+03</rscale>
<asrwt>0</asrwt>
<pdfrwt beam="1">  1        2 0.36846596E+00 0.34943481E+03</pdfrwt>
<pdfrwt beam="2">  1       -2 0.51779157E-02 0.34943481E+03</pdfrwt>
<totfact> 0.83972906E+02</totfact>
</mgrwt>
</event>
<event>
 6      1 +1.8175624e-03 2.15701400e+02 7.81860800e-03 1.13712900e-01
        2 -1    0    0  501    0 +0.0000000000e+00 +0.0000000000e+00 +1.0242467770e+02 1.0242467773e+02 2.5500000000e-03 0.0000e+00 1.0000e+00
       -2 -1    0    0    0  501 -0.0000000000e+00 -0.0000000000e+00 -1.1356420604e+02 1.1356420607e+02 2.5500000000e-03 0.0000e+00 -1.0000e+00
      -13  1    1    2    0    0 -1.4232998733e+01 -8.5284408986e+01 +2.8606860384e+01 9.1073444506e+01 1.0566000000e-01 0.0000e+00 -1.0000e+00
       13  1    1    2    0    0 -2.5156796750e+01 +1.2040692660e+01 -2.5622320405e+01 3.7872908120e+01 1.0566000000e-01 0.0000e+00 1.0000e+00
      -13  1    1    2    0    0 +2.8526590467e+01 +3.4507048029e+01 -1.3657720486e+01 4.6808623354e+01 1.0566000000e-01 0.0000e+00 -1.0000e+00
       13  1    1    2    0    0 +1.0863205016e+01 +3.8736668298e+01 -4.6634783048e-01 4.0233907819e+01 1.0566000000e-01 0.0000e+00 1.0000e+00
<mgrwt>
<rscale>  0 0.21570143E+03</rscale>
<asrwt>0</asrwt>
<pdfrwt beam="1">  1        2 0.25606169E-01 0.21570143E+03</pdfrwt>
<pdfrwt beam="2">  1       -2 0.28391052E-01 0.21570143E+03</pdfrwt>
<totfact> 0.23404506E+03</totfact>
</mgrwt>
</event>
<event>
 6      1 +1.8175624e-03 3.48684500e+02 7.81860800e-03 1.06315600e-01
        2 -1    0    0  501    0 +0.0000000000e+00 +0.0000000000e+00 +4.0391806833e+02 4.0391806833e+02 2.5500000000e-03 0.0000e+00 -1.0000e+00
       -2 -1    0    0    0  501 -0.0000000000e+00 -0.0000000000e+00 -7.5250965846e+01 7.5250965890e+01 2.5500000000e-03 0.0000e+00 1.0000e+00
      -13  1    1    2    0    0 -1.0032033880e+02 -4.4910772563e+01 +1.0057047865e+02 1.4898181167e+02 1.0566000000e-01 0.0000e+00 1.0000e+00
       13  1    1    2    0    0 +7.4144839514e+01 -6.2059442764e+01 +2.9029278975e+01 1.0095316669e+02 1.0566000000e-01 0.0000e+00 1.0000e+00
      -13  1    1    2    0    0 -5.6731280225e+00 +2.3992800976e+01 +3.8773352608e+01 4.5948045843e+01 1.0566000000e-01 0.0000e+00 -1.0000e+00
       13  1    1    2    0    0 +3.1848627311e+01 +8.2977414350e+01 +1.6029399225e+02 1.8328601002e+02 1.0566000000e-01 0.0000e+00 -1.0000e+00
<mgrwt>
<rscale>  0 0.34868453E+03</rscale>
<asrwt>0</asrwt>
<pdfrwt beam="1">  1        2 0.10097952E+00 0.34868453E+03</pdfrwt>
<pdfrwt beam="2">  1       -2 0.18812742E-01 0.34868453E+03</pdfrwt>
<totfact> 0.10607295E+03</totfact>
</mgrwt>
</event>
<event>
 6      1 +1.8175624e-03 2.17943000e+02 7.81860800e-03 1.13542600e-01
        4 -1    0    0  501    0 +0.0000000000e+00 +0.0000000000e+00 +1.3120832497e+02 1.3121447116e+02 1.2700000000e+00 0.0000e+00 1.0000e+00
       -4 -1    0    0    0  501 -0.0000000000e+00 -0.0000000000e+00 -9.0490572997e+01 9.0499484536e+01 1.2700000000e+00 0.0000e+00 -1.0000e+00
      -13  1    1    2    0    0 +1.0018394607e+01 +3.4623437467e+01 +1.1150772787e+00 3.6061131622e+01 1.0566000000e-01 0.0000e+00 -1.0000e+00
       13  1    1    2    0    0 -6.5075457388e+01 +2.4863681718e+01 +5.6744110098e+01 8.9849446396e+01 1.0566000000e-01 0.0000e+00 -1.0000e+00
      -13  1    1    2    0    0 +2.1501934497e+00 -3.6386750374e+01 -4.7535307750e+00 3.6759028190e+01 1.0566000000e-01 0.0000e+00 1.0000e+00
       13  1    1    2    0    0 +5.2906869331e+01 -2.3100368811e+01 -1.2387904626e+01 5.9044349490e+01 1.0566000000e-01 0.0000e+00 1.0000e+00
<mgrwt>
<rscale>  0 0.21794298E+03</rscale>
<asrwt>0</asrwt>
<pdfrwt beam="1">  1        4 0.32803963E-01 0.21794298E+03</pdfrwt>
<pdfrwt beam="2">  1       -4 0.22624526E-01 0.21794298E+03</pdfrwt>
<totfact> 0.29088968E+02</totfact>
</mgrwt>
</event>
<event>
 7      1 +1.8175624e-03 9.04000100e+01 7.81860800e-03 1.30188600e-01
        2 -1    0    0  501    0 +0.0000000000e+00 +0.0000000000e+00 +1.8587596564e+02 1.8587596565e+02 2.5500000000e-03 0.0000e+00 -1.0000e+00
       -2 -1    0    0    0  501 -0.0000000000e+00 -0.0000000000e+00 -1.0991417085e+01 1.0991417381e+01 2.5500000000e-03 0.0000e+00 1.0000e+00
       23  2    1    2    0    0 +6.6613381478e-16 +3.5527136788e-15 +1.7488454855e+02 1.9686738304e+02 9.0400006531e+01 0.0000e+00 0.0000e+00
      -13  1    3    3    0    0 +8.9419199010e-01 -2.7196618539e+01 +2.8666940584e+01 3.9525438464e+01 1.0566000000e-01 0.0000e+00 -1.0000e+00
       13  1    3    3    0    0 -1.3291194285e+01 -1.2184637290e+00 +4.1807775971e+01 4.3886692687e+01 1.0566000000e-01 0.0000e+00 1.0000e+00
      -13  1    3    3    0    0 -6.3613473609e-01 +2.9316431771e+01 +8.6143319119e+01 9.0997474866e+01 1.0566000000e-01 0.0000e+00 1.0000e+00
       13  1    3    3    0    0 +1.3033137031e+01 -9.0134950377e-01 +1.8266512879e+01 2.2457777018e+01 1.0566000000e-01 0.0000e+00 -1.0000e+00
<mgrwt>
<rscale>  0 0.90400007E+02</rscale>
<asrwt>0</asrwt>
<pdfrwt beam="1">  1        2 0.46468992E-01 0.90400007E+02</pdfrwt>
<pdfrwt beam="2">  1       -2 0.27478543E-02 0.90400007E+02</pdfrwt>
<totfact> 0.45917094E+04</totfact>
</mgrwt>
</event>
<event>
 6      1 +1.8175624e-03 5.11909900e+02 7.81860800e-03 1.01071600e-01
       -2 -1    0    0    0  501 -0.0000000000e+00 +0.0000000000e+00 +4.0723022090e+02 4.0723022091e+02 2.5500000000e-03 0.0000e+00 -1.0000e+00
        2 -1    0    0  501    0 +0.0000000000e+00 -0.0000000000e+00 -1.6087446256e+02 1.6087446258e+02 2.5500000000e-03 0.0000e+00 1.0000e+00
      -13  1    1    2    0    0 +1.0728960359e+01 +2.4448951161e+01 -4.3660196348e+00 2.7054299007e+01 1.0566000000e-01 0.0000e+00 -1.0000e+00
       13  1    1    2    0    0 -9.4588275446e+01 +1.2595179278e+02 -5.2168913163e+01 1.6592890833e+02 1.0566000000e-01 0.0000e+00 1.0000e+00
      -13  1    1    2    0    0 +1.1828920465e+02 -8.6881251575e+01 +2.2720715080e+02 2.7048805583e+02 1.0566000000e-01 0.0000e+00 -1.0000e+00
       13  1    1    2    0    0 -3.4429889559e+01 -6.3519492366e+01 +7.5683540336e+01 1.0463342032e+02 1.0566000000e-01 0.0000e+00 1.0000e+00
<mgrwt>
<rscale>  0 0.51190993E+03</rscale>
<asrwt>0</asrwt>
<pdfrwt beam="1">  1        2 0.40218616E-01 0.51190993E+03</pdfrwt>
<pdfrwt beam="2">  1       -2 0.10180755E+00 0.51190993E+03</pdfrwt>
<totfact> 0.10347445E+02</totfact>
</mgrwt>
</event>
<event>
 6      1 +1.8175624e-03 8.58368900e+02 7.81860800e-03 9.47917300e-02
        1 -1    0    0  501    0 +0.0000000000e+00 +0.0000000000e+00 +4.7314619659e+02 4.7314619661e+02 5.0400000000e-03 0.0000e+00 -1.0000e+00
       -1 -1    0    0    0  501 -0.0000000000e+00 -0.0000000000e+00 -3.8930736111e+02 3.8930736114e+02 5.0400000000e-03 0.0000e+00 1.0000e+00
      -13  1    1    2    0    0 -1.3510070684e+01 -4.8956707391e+01 +5.0503017439e+01 7.1622951230e+01 1.0566000000e-01 0.0000e+00 1.0000e+00
       13  1    1    2    0    0 +1.5089059062e+01 +5.0364202310e+01 +5.9733015831e+01 7.9575605069e+01 1.0566000000e-01 0.0000e+00 -1.0000e+00
      -13  1    1    2    0    0 -1.1285706132e+02 +1.2133134971e+02 -3.2781008877e+02 3.6731114627e+02 1.0566000000e-01 0.0000e+00 1.0000e+00
       13  1    1    2    0    0 +1.1127807294e+02 -1.2273884463e+02 +3.0141289098e+02 3.4394385518e+02 1.0566000000e-01 0.0000e+00 -1.0000e+00
<mgrwt>
<rscale>  0 0.85836891E+03</rscale>
<asrwt>0</asrwt>
<pdfrwt beam="1">  1        1 0.11828655E+00 0.85836891E+03</pdfrwt>
<pdfrwt beam="2">  1       -1 0.97326840E-01 0.85836891E+03</pdfrwt>
<totfact> 0.24238809E+01</totfact>
</mgrwt>
</event>
<event>
 6      1 +1.8175624e-03 2.14224200e+02 7.81860800e-03 1.13826400e-01
        2 -1    0    0  501    0 +0.0000000000e+00 +0.0000000000e+00 +7.3214592936e+01 7.3214592981e+01 2.5500000000e-03 0.0000e+00 -1.0000e+00
       -2 -1    0    0    0  501 -0.0000000000e+00 -0.0000000000e+00 -1.5670382527e+02 1.5670382529e+02 2.5500000000e-03 0.0000e+00 1.0000e+00
      -13  1    1    2    0    0 +5.2240585437e+01 +2.1048322584e+01 +1.6741848561e+00 5.6346470248e+01 1.0566000000e-01 0.0000e+00 1.0000e+00
       13  1    1    2    0    0 -7.9757466771e+01 +2.2668158948e+01 -6.5215102855e+01 1.0548990350e+02 1.0566000000e-01 0.0000e+00 1.0000e+00
      -13  1    1    2    0    0 +2.7098283951e+01 -7.6822980966e+00 -1.4356027458e+01 3.1613942898e+01 1.0566000000e-01 0.0000e+00 -1.0000e+00
       13  1    1    2    0    0 +4.1859738242e-01 -3.6034183435e+01 -5.5922868751e+00 3.6468101625e+01 1.0566000000e-01 0.0000e+00 -1.0000e+00
<mgrwt>
<rscale>  0 0.21422424E+03</rscale>
<asrwt>0</asrwt>
<pdfrwt beam="1">  1        2 0.18303648E-01 0.21422424E+03</pdfrwt>
<pdfrwt beam="2">  1       -2 0.39175956E-01 0.21422424E+03</pdfrwt>
<totfact> 0.18889497E+03</totfact>
</mgrwt>
</event>
<event>
 6      1 +1.8175624e-03 3.56647800e+02 7.81860800e-03 1.05991900e-01
       -2 -1    0    0    0  501 -0.0000000000e+00 +0.0000000000e+00 +9.7767712925e+01 9.7767712958e+01 2.5500000000e-03 0.0000e+00 1.0000e+00
        2 -1    0    0  501    0 +0.0000000000e+00 -0.0000000000e+00 -3.2525482623e+02 3.2525482624e+02 2.5500000000e-03 0.0000e+00 -1.0000e+00
      -13  1    1    2    0    0 +8.6343559444e+00 -9.0672460181e+01 -1.3496690805e+02 1.6282544203e+02 1.0566000000e-01 0.0000e+00 1.0000e+00
       13  1    1    2    0    0 -4.7300366948e+00 -9.0263847811e+00 -3.0689951572e+01 3.2337797713e+01 1.0566000000e-01 0.0000e+00 -1.0000e+00
      -13  1    1    2    0    0 +2.3095910859e+01 +4.9101565693e+01 +6.7368386056e+01 8.6503730877e+01 1.0566000000e-01 0.0000e+00 1.0000e+00
       13  1    1    2    0    0 -2.7000230109e+01 +5.0597279269e+01 -1.2919863973e+02 1.4135556858e+02 1.0566000000e-01 0.0000e+00 -1.0000e+00
<mgrwt>
<rscale>  0 0.35664784E+03</rscale>
<asrwt>0</asrwt>
<pdfrwt beam="1">  1        2 0.81313704E-01 0.35664784E+03</pdfrwt>
<pdfrwt beam="2">  1       -2 0.24441929E-01 0.35664784E+03</pdfrwt>
<totfact> 0.86682393E+02</totfact>
</mgrwt>
</event>
<event>
 6      1 +1.8175624e-03 5.34994500e+02 7.81860800e-03 1.00502800e-01
       -2 -1    0    0    0  501 -0.0000000000e+00 +0.0000000000e+00 +7.3459840048e+02 7.3459840049e+02 2.5500000000e-03 0.0000e+00 1.0000e+00
        2 -1    0    0  501    0 +0.0000000000e+00 -0.0000000000e+00 -9.7406672805e+01 9.7406672838e+01 2.5500000000e-03 0.0000e+00 -1.0000e+00
      -13  1    1    2    0    0 +5.5071237473e+00 +1.1229099999e+01 +3.4564258592e+01 3.6757587445e+01 1.0566000000e-01 0.0000e+00 1.0000e+00
       13  1    1    2    0    0 +3.6389763776e+00 +2.8884486947e+01 -6.9721207085e+01 7.5555367888e+01 1.0566000000e-01 0.0000e+00 -1.0000e+00
      -13  1    1    2    0    0 +1.3626812913e+01 +1.0506187261e+02 +2.2218114550e+02 2.4614662233e+02 1.0566000000e-01 0.0000e+00 1.0000e+00
       13  1    1    2    0    0 -2.2772913038e+01 -1.4517545955e+02 +4.5016753067e+02 4.7354549566e+02 1.0566000000e-01 0.0000e+00 -1.0000e+00
<mgrwt>
<rscale>  0 0.53499453E+03</rscale>
<asrwt>0</asrwt>
<pdfrwt beam="1">  1        2 0.24351668E-01 0.53499453E+03</pdfrwt>
<pdfrwt beam="2">  1       -2 0.18364960E+00 0.53499453E+03</pdfrwt>
<totfact> 0.39810639E+01</totfact>
</mgrwt>
</event>
<event>
 6      1 +1.8175624e-03 1.99641700e+02 7.81860800e-03 1.15004200e-01
       -1 -1    0    0    0  501 -0.0000000000e+00 +0.0000000000e+00 +2.4037814306e+02 2.4037814311e+02 5.0400000000e-03 0.0000e+00 1.0000e+00
        1 -1    0    0  501    0 +0.0000000000e+00 -0.0000000000e+00 -4.1452196149e+01 4.1452196456e+01 5.0400000000e-03 0.0000e+00 -1.0000e+00
      -13  1    1    2    0    0 -3.3352736909e+01 -4.0441499455e+01 +8.5158026950e+01 9.9999103273e+01 1.0566000000e-01 0.0000e+00 1.0000e+00
       13  1    1    2    0    0 +2.5761428139e+01 +1.9656847211e+01 +1.0541186136e+02 1.1028016368e+02 1.0566000000e-01 0.0000e+00 1.0000e+00
      -13  1    1    2    0    0 -1.5744553207e+01 -1.1498110321e+01 -1.5686698698e+01 2.5023612383e+01 1.0566000000e-01 0.0000e+00 -1.0000e+00
       13  1    1    2    0    0 +2.3335861977e+01 +3.2282762564e+01 +2.4042757300e+01 4.6527460231e+01 1.0566000000e-01 0.0000e+00 -1.0000e+00
<mgrwt>
<rscale>  0 0.19964170E+03</rscale>
<asrwt>0</asrwt>
<pdfrwt beam="1">  1        1 0.10363049E-01 0.19964170E+03</pdfrwt>
<pdfrwt beam="2">  1       -1 0.60094535E-01 0.19964170E+03</pdfrwt>
<totfact> 0.17512552E+03</totfact>
</mgrwt>
</event>
<event>
 6      1 +1.8175624e-03 8.18017200e+02 7.81860800e-03 9.53429800e-02
       -2 -1    0    0    0  501 -0.0000000000e+00 +0.0000000000e+00 +1.0214994825e+02 1.0214994828e+02 2.5500000000e-03 0.0000e+00 1.0000e+00
        2 -1    0    0  501    0 +0.0000000000e+00 -0.0000000000e+00 -1.6376711780e+03 1.6376711780e+03 2.5500000000e-03 0.0000e+00 -1.0000e+00
      -13  1    1    2    0    0 +1.5478244674e+02 -3.1871788200e+02 -6.7894286262e+02 7.6583426144e+02 1.0566000000e-01 0.0000e+00 1.0000e+00
       13  1    1    2    0    0 +6.8552914245e+00 +9.7695745839e+01 -4.8615994820e+01 1.0933883067e+02 1.0566000000e-01 0.0000e+00 1.0000e+00
      -13  1    1    2    0    0 -1.4415649212e+00 -1.8254206175e+01 -3.0507861722e+01 3.5581384787e+01 1.0566000000e-01 0.0000e+00 -1.0000e+00
       13  1    1    2    0    0 -1.6019617324e+02 +2.3927634234e+02 -7.7745451058e+02 8.2906664938e+02 1.0566000000e-01 0.0000e+00 -1.0000e+00
<mgrwt>
<rscale>  0 0.81801718E+03</rscale>
<asrwt>0</asrwt>
<pdfrwt beam="1">  1        2 0.40941771E+00 0.81801718E+03</pdfrwt>
<pdfrwt beam="2">  1       -2 0.25537492E-01 0.81801718E+03</pdfrwt>
<totfact> 0.40026217E+01</totfact>
</mgrwt>
</event>
<event>
 6      1 +1.8175624e-03 5.59487100e+02 7.81860800e-03 9.99321600e-02
       -2 -1    0    0    0  501 -0.0000000000e+00 +0.0000000000e+00 +2.1394116297e+02 2.1394116298e+02 2.5500000000e-03 0.0000e+00 -1.0000e+00
        2 -1    0    0  501    0 +0.0000000000e+00 -0.0000000000e+00 -3.6578496175e+02 3.6578496176e+02 2.5500000000e-03 0.0000e+00 1.0000e+00
      -13  1    1    2    0    0 -1.5149637399e+02 -1.8777912964e+01 -8.4919444207e+01 1.7468567347e+02 1.0566000000e-01 0.0000e+00 -1.0000e+00
       13  1    1    2    0    0 +2.2545865583e+02 -7.2115969482e+01 -4.3205012721e+01 2.4062211626e+02 1.0566000000e-01 0.0000e+00 1.0000e+00
      -13  1    1    2    0    0 -3.4460354337e+01 +7.8339951106e+01 -6.3809421196e+01 1.0675353557e+02 1.0566000000e-01 0.0000e+00 1.0000e+00
       13  1    1    2    0    0 -3.9501927510e+01 +1.2553931341e+01 +4.0090079337e+01 5.7664799439e+01 1.0566000000e-01 0.0000e+00 -1.0000e+00
<mgrwt>
<rscale>  0 0.55948712E+03</rscale>
<asrwt>0</asrwt>
<pdfrwt beam="1">  1        2 0.91446240E-01 0.55948712E+03</pdfrwt>
<pdfrwt beam="2">  1       -2 0.53485291E-01 0.55948712E+03</pdfrwt>
<totfact> 0.16865767E+02</totfact>
</mgrwt>
</event>
<event>
 6      1 +1.8175624e-03 6.75760500e+02 7.81860800e-03 9.75960700e-02
       -2 -1    0    0    0  501 -0.0000000000e+00 +0.0000000000e+00 +1.7710286107e+02 1.7710286109e+02 2.5500000000e-03 0.0000e+00 -1.0000e+00
        2 -1    0    0  501    0 +0.0000000000e+00 -0.0000000000e+00 -6.4461442854e+02 6.4461442855e+02 2.5500000000e-03 0.0000e+00 1.0000e+00
      -13  1    1    2    0    0 -6.9826543318e+01 -8.2450378624e+01 -2.0293721672e+02 2.2990723386e+02 1.0566000000e-01 0.0000e+00 1.0000e+00
       13  1    1    2    0    0 -4.3657818200e+00 +1.6423648853e+01 -4.4120793194e+01 4.7280565232e+01 1.0566000000e-01 0.0000e+00 1.0000e+00
      -13  1    1    2    0    0 +2.4522245777e+02 -8.0671360292e+01 -1.8221713444e+02 3.1598262201e+02 1.0566000000e-01 0.0000e+00 -1.0000e+00
       13  1    1    2    0    0 -1.7103013263e+02 +1.4669809006e+02 -3.8236423110e+01 2.2854686852e+02 1.0566000000e-01 0.0000e+00 -1.0000e+00
<mgrwt>
<rscale>  0 0.67576049E+03</rscale>
<asrwt>0</asrwt>
<pdfrwt beam="1">  1        2 0.16115360E+00 0.67576049E+03</pdfrwt>
<pdfrwt beam="2">  1       -2 0.44275717E-01 0.67576049E+03</pdfrwt>
<totfact> 0.11581104E+02</totfact>
</mgrwt>
</event>
<event>
 6      1 +1.8175624e-03 3.15994600e+02 7.81860800e-03 1.07750800e-01
       -1 -1    0    0    0  501 -0.0000000000e+00 +0.0000000000e+00 +9.2523887603e+01 9.2523887740e+01 5.0400000000e-03 0.0000e+00 1.0000e+00
        1 -1    0    0  501    0 +0.0000000000e+00 -0.0000000000e+00 -2.6980210980e+02 2.6980210985e+02 5.0400000000e-03 0.0000e+00 -1.0000e+00
      -13  1    1    2    0    0 +4.4689327935e+01 +6.7497289845e+01 -1.1274157891e+02 1.3879371365e+02 1.0566000000e-01 0.0000e+00 1.0000e+00
       13  1    1    2    0    0 -3.4356270786e+01 -3.9894560568e+01 +5.3948442645e+01 7.5381529124e+01 1.0566000000e-01 0.0000e+00 1.0000e+00
      -13  1    1    2    0    0 +1.3543314564e+01 -2.4985100217e+01 -1.2072671194e+02 1.2402671786e+02 1.0566000000e-01 0.0000e+00 -1.0000e+00
       13  1    1    2    0    0 -2.3876371712e+01 -2.6176290597e+00 +2.2416260124e+00 2.4124036960e+01 1.0566000000e-01 0.0000e+00 -1.0000e+00
<mgrwt>
<rscale>  0 0.31599456E+03</rscale>
<asrwt>0</asrwt>
<pdfrwt beam="1">  1        1 0.67450526E-01 0.31599456E+03</pdfrwt>
<pdfrwt beam="2">  1       -1 0.23130973E-01 0.31599456E+03</pdfrwt>
<totfact> 0.85438221E+02</totfact>
</mgrwt>
</event>
<event>
 6      1 +1.8175624e-03 4.05571600e+02 7.81860800e-03 1.04186700e-01
       -2 -1    0    0    0  501 -0.0000000000e+00 +0.0000000000e+00 +1.5261680604e+02 1.5261680606e+02 2.5500000000e-03 0.0000e+00 1.0000e+00
        2 -1    0    0  501    0 +0.0000000000e+00 -0.0000000000e+00 -2.6944663701e+02 2.6944663702e+02 2.5500000000e-03 0.0000e+00 -1.0000e+00
      -13  1    1    2    0    0 +7.7274342278e+01 +5.6780724453e+01 +2.3304329452e+01 9.8683724996e+01 1.0566000000e-01 0.0000e+00 1.0000e+00
       13  1    1    2    0    0 -1.1827257724e+01 -1.3105577367e+01 +1.1687528145e+01 2.1171907368e+01 1.0566000000e-01 0.0000e+00 1.0000e+00
      -13  1    1    2    0    0 +7.1640216394e+01 +4.6016182054e+01 -9.7885431388e+01 1.2973580253e+02 1.0566000000e-01 0.0000e+00 -1.0000e+00
       13  1    1    2    0    0 -1.3708730095e+02 -8.9691329140e+01 -5.3936257178e+01 1.7247200818e+02 1.0566000000e-01 0.0000e+00 -1.0000e+00
<mgrwt>
<rscale>  0 0.40557162E+03</rscale>
<asrwt>0</asrwt>
<pdfrwt beam="1">  1        2 0.67361659E-01 0.40557162E+03</pdfrwt>
<pdfrwt beam="2">  1       -2 0.38154202E-01 0.40557162E+03</pdfrwt>
<totfact> 0.47196163E+02</totfact>
</mgrwt>
</event>
<event>
 6      1 +1.8175624e-03 4.88261200e+02 7.81860800e-03 1.01688900e-01
        1 -1    0    0  501    0 +0.0000000000e+00 +0.0000000000e+00 +1.1337020087e+03 1.1337020087e+03 5.0400000000e-03 0.0000e+00 -1.0000e+00
       -1 -1    0    0    0  501 -0.0000000000e+00 -0.0000000000e+00 -5.2570921255e+01 5.2570921497e+01 5.0400000000e-03 0.0000e+00 1.0000e+00
      -13  1    1    2    0    0 +3.9999372504e+01 +3.4925284819e+01 +6.0898684178e+01 8.0798429558e+01 1.0566000000e-01 0.0000e+00 1.0000e+00
       13  1    1    2    0    0 +8.8949127012e+00 +7.2939495192e+01 +1.4634687262e+02 1.6375807681e+02 1.0566000000e-01 0.0000e+00 -1.0000e+00
      -13  1    1    2    0    0 -3.1062378799e+01 +6.0620730239e+01 +1.9724300924e+01 7.0914057298e+01 1.0566000000e-01 0.0000e+00 1.0000e+00
       13  1    1    2    0    0 -1.7831906406e+01 -1.6848551025e+02 +8.5416122969e+02 8.7080236651e+02 1.0566000000e-01 0.0000e+00 -1.0000e+00
<mgrwt>
<rscale>  0 0.48826124E+03</rscale>
<asrwt>0</asrwt>
<pdfrwt beam="1">  1        1 0.28342551E+00 0.48826124E+03</pdfrwt>
<pdfrwt beam="2">  1       -1 0.13142730E-01 0.48826124E+03</pdfrwt>
<totfact> 0.16391345E+02</totfact>
</mgrwt>
</event>
<event>
 6      1 +1.8175624e-03 2.12861300e+02 7.81860800e-03 1.13932000e-01
        1 -1    0    0  501    0 +0.0000000000e+00 +0.0000000000e+00 +2.8914528202e+01 2.8914528641e+01 5.0400000000e-03 0.0000e+00 -1.0000e+00
       -1 -1    0    0    0  501 -0.0000000000e+00 -0.0000000000e+00 -3.9175761526e+02 3.9175761530e+02 5.0400000000e-03 0.0000e+00 1.0000e+00
      -13  1    1    2    0    0 +6.6325087680e+01 -1.1167112410e+01 -1.0572622594e+02 1.2530669444e+02 1.0566000000e-01 0.0000e+00 1.0000e+00
       13  1    1    2    0    0 -5.2325781609e+01 +3.5225867143e+01 -1.0348730278e+02 1.2119604836e+02 1.0566000000e-01 0.0000e+00 -1.0000e+00
      -13  1    1    2    0    0 +2.7558983484e+01 -2.8612369751e+01 -8.4674546153e+01 9.3530504135e+01 1.0566000000e-01 0.0000e+00 1.0000e+00
       13  1    1    2    0    0 -4.1558289555e+01 +4.5536150185e+00 -6.8955012179e+01 8.0638896998e+01 1.0566000000e-01 0.0000e+00 -1.0000e+00
<mgrwt>
<rscale>  0 0.21286133E+03</rscale>
<asrwt>0</asrwt>
<pdfrwt beam="1">  1        1 0.72286333E-02 0.21286133E+03</pdfrwt>
<pdfrwt beam="2">  1       -1 0.97939387E-01 0.21286133E+03</pdfrwt>
<totfact> 0.10492237E+03</totfact>
</mgrwt>
</event>
<event>
 6      1 +1.8175624e-03 3.54818400e+02 7.81860800e-03 1.06065500e-01
        2 -1    0    0  501    0 +0.0000000000e+00 +0.0000000000e+00 +8.9301398449e+02 8.9301398449e+02 2.5500000000e-03 0.0000e+00 -1.0000e+00
       -2 -1    0    0    0  501 -0.0000000000e+00 -0.0000000000e+00 -3.5244712955e+01 3.5244713047e+01 2.5500000000e-03 0.0000e+00 1.0000e+00
      -13  1    1    2    0    0 -4.6344061201e+01 +9.9709941704e+01 +2.9729945528e+02 3.1698079083e+02 1.0566000000e-01 0.0000e+00 1.0000e+00
       13  1    1    2    0    0 -5.8274483590e+01 -1.7599150985e+01 +1.8314654147e+02 1.9299821857e+02 1.0566000000e-01 0.0000e+00 -1.0000e+00
      -13  1    1    2    0    0 +3.3476185437e+01 +2.9802230989e+01 +6.4850864596e+01 7.8831933671e+01 1.0566000000e-01 0.0000e+00 1.0000e+00
       13  1    1    2    0    0 +7.1142359354e+01 -1.1191302171e+02 +3.1247241018e+02 3.3944775447e+02 1.0566000000e-01 0.0000e+00 -1.0000e+00
<mgrwt>
<rscale>  0 0.35481839E+03</rscale>
<asrwt>0</asrwt>
<pdfrwt beam="1">  1        2 0.22325349E+00 0.35481839E+03</pdfrwt>
<pdfrwt beam="2">  1       -2 0.88111785E-02 0.35481839E+03</pdfrwt>
<totfact> 0.11725731E+03</totfact>
</mgrwt>
</event>
<event>
 6      1 +1.8175624e-03 1.96797600e+02 7.81860800e-03 1.15246900e-01
       -2 -1    0    0    0  501 -0.0000000000e+00 +0.0000000000e+00 +3.9145703334e+02 3.9145703335e+02 2.5500000000e-03 0.0000e+00 -1.0000e+00
        2 -1    0    0  501    0 +0.0000000000e+00 -0.0000000000e+00 -2.4734068889e+01 2.4734069021e+01 2.5500000000e-03 0.0000e+00 1.0000e+00
      -13  1    1    2    0    0 -1.5076928652e+01 +2.0245355573e+01 +5.2071923829e+01 5.7867820204e+01 1.0566000000e-01 0.0000e+00 1.0000e+00
       13  1    1    2    0    0 +5.5805444356e+01 +2.1886287701e+01 +2.5225784335e+02 2.5928225528e+02 1.0566000000e-01 0.0000e+00 -1.0000e+00
      -13  1    1    2    0    0 -4.2842564648e+01 -9.6829453027e+00 +4.1233703662e+01 6.0245118118e+01 1.0566000000e-01 0.0000e+00 -1.0000e+00
       13  1    1    2    0    0 +2.1140489432e+00 -3.2448697972e+01 +2.1159493612e+01 3.8795908766e+01 1.0566000000e-01 0.0000e+00 1.0000e+00
<mgrwt>
<rscale>  0 0.19679761E+03</rscale>
<asrwt>0</asrwt>
<pdfrwt beam="1">  1        2 0.61835173E-02 0.19679761E+03</pdfrwt>
<pdfrwt beam="2">  1       -2 0.97864258E-01 0.19679761E+03</pdfrwt>
<totfact> 0.10571490E+03</totfact>
</mgrwt>
</event>
<event>
 6      1 +1.8175624e-03 4.37650500e+02 7.81860800e-03 1.03147000e-01
       -2 -1    0    0    0  501 -0.0000000000e+00 +0.0000000000e+00 +1.0726055571e+02 1.0726055574e+02 2.5500000000e-03 0.0000e+00 -1.0000e+00
        2 -1    0    0  501    0 +0.0000000000e+00 -0.0000000000e+00 -4.4643149878e+02 4.4643149879e+02 2.5500000000e-03 0.0000e+00 1.0000e+00
      -13  1    1    2    0    0 +5.4389003323e+01 +6.4624600900e+01 -1.6388277901e+01 8.6041208386e+01 1.0566000000e-01 0.0000e+00 -1.0000e+00
       13  1    1    2    0    0 +6.1568254770e+01 -4.3157525102e+01 -3.0510838093e+02 3.1423614885e+02 1.0566000000e-01 0.0000e+00 1.0000e+00
      -13  1    1    2    0    0 -4.5880466944e+01 -5.7489786523e+01 -6.6422752316e+00 7.3852716847e+01 1.0566000000e-01 0.0000e+00 1.0000e+00
       13  1    1    2    0    0 -7.0076791149e+01 +3.6022710725e+01 -1.1032009010e+01 7.9561980447e+01 1.0566000000e-01 0.0000e+00 -1.0000e+00
<mgrwt>
<rscale>  0 0.43765050E+03</rscale>
<asrwt>0</asrwt>
<pdfrwt beam="1">  1        2 0.11160787E+00 0.43765050E+03</pdfrwt>
<pdfrwt beam="2">  1       -2 0.26815140E-01 0.43765050E+03</pdfrwt>
<totfact> 0.50178330E+02</totfact>
</mgrwt>
</event>
<event>
 6      1 +1.8175624e-03 4.17447800e+02 7.81860800e-03 1.03790000e-01
       -1 -1    0    0    0  501 -0.0000000000e+00 +0.0000000000e+00 +5.1052600789e+01 5.1052601038e+01 5.0400000000e-03 0.0000e+00 1.0000e+00
        1 -1    0    0  501    0 +0.0000000000e+00 -0.0000000000e+00 -8.5334845517e+02 8.5334845519e+02 5.0400000000e-03 0.0000e+00 -1.0000e+00
      -13  1    1    2    0    0 +7.3117736346e+01 -3.8002641353e+01 -1.1052407217e+02 1.3786219863e+02 1.0566000000e-01 0.0000e+00 1.0000e+00
       13  1    1    2    0    0 -1.3414753331e+02 -2.8597709650e+01 -5.6342357549e+02 5.7987888931e+02 1.0566000000e-01 0.0000e+00 -1.0000e+00
      -13  1    1    2    0    0 -7.7735890862e-01 +1.8341324736e+01 +1.4706837110e+01 2.3522557296e+01 1.0566000000e-01 0.0000e+00 1.0000e+00
       13  1    1    2    0    0 +6.1807155870e+01 +4.8259026266e+01 -1.4305504384e+02 1.6313741099e+02 1.0566000000e-01 0.0000e+00 -1.0000e+00
<mgrwt>
<rscale>  0 0.41744776E+03</rscale>
<asrwt>0</asrwt>
<pdfrwt beam="1">  1        1 0.21333707E+00 0.41744776E+03</pdfrwt>
<pdfrwt beam="2">  1       -1 0.12763153E-01 0.41744776E+03</pdfrwt>
<totfact> 0.34941901E+02</totfact>
</mgrwt>
</event>
<event>
 7      1 +1.8175624e-03 9.28999400e+01 7.81860800e-03 1.29597700e-01
        4 -1    0    0  501    0 +0.0000000000e+00 +0.0000000000e+00 +4.0309011471e+01 4.0329013201e+01 1.2700000000e+00 0.0000e+00 -1.0000e+00
       -4 -1    0    0    0  501 -0.0000000000e+00 -0.0000000000e+00 -5.3485670668e+01 5.3500746413e+01 1.2700000000e+00 0.0000e+00 1.0000e+00
       23  2    1    2    0    0 +7.1054273576e-15 +1.7763568394e-15 -1.3176659197e+01 9.3829759614e+01 9.2899943173e+01 0.0000e+00 0.0000e+00
      -13  1    3    3    0    0 -1.1449376446e+01 +9.3829693574e-01 +3.6921545711e+00 1.2066971101e+01 1.0566000000e-01 0.0000e+00 1.0000e+00
       13  1    3    3    0    0 +3.2040654847e+01 +2.7060533461e+01 -2.9738820141e+00 4.2044395257e+01 1.0566000000e-01 0.0000e+00 -1.0000e+00
      -13  1    3    3    0    0 -6.2192222264e+00 -1.1410845074e+01 -1.1999205826e+01 1.7688363828e+01 1.0566000000e-01 0.0000e+00 -1.0000e+00
       13  1    3    3    0    0 -1.4372056175e+01 -1.6587985323e+01 -1.8957259277e+00 2.2030029428e+01 1.0566000000e-01 0.0000e+00 1.0000e+00
<mgrwt>
<rscale>  0 0.92899943E+02</rscale>
<asrwt>0</asrwt>
<pdfrwt beam="1">  1        4 0.10081638E-01 0.92899943E+02</pdfrwt>
<pdfrwt beam="2">  1       -4 0.13375802E-01 0.92899943E+02</pdfrwt>
<totfact> 0.50893929E+03</totfact>
</mgrwt>
</event>
<event>
 6      1 +1.8175624e-03 7.99701000e+02 7.81860800e-03 9.56045000e-02
        2 -1    0    0  501    0 +0.0000000000e+00 +0.0000000000e+00 +1.4539733045e+03 1.4539733045e+03 2.5500000000e-03 0.0000e+00 -1.0000e+00
       -2 -1    0    0    0  501 -0.0000000000e+00 -0.0000000000e+00 -1.0996103360e+02 1.0996103363e+02 2.5500000000e-03 0.0000e+00 1.0000e+00
      -13  1    1    2    0    0 -3.1642215477e+01 -3.5269792025e+01 +7.1369186866e+01 8.5666563067e+01 1.0566000000e-01 0.0000e+00 -1.0000e+00
       13  1    1    2    0    0 -1.5053564201e+02 -4.8385600852e+01 +2.9474978738e+01 1.6084443235e+02 1.0566000000e-01 0.0000e+00 1.0000e+00
      -13  1    1    2    0    0 +5.7867949600e+01 +2.1096188408e+02 +9.4681420117e+02 9.7175653269e+02 1.0566000000e-01 0.0000e+00 1.0000e+00
       13  1    1    2    0    0 +1.2430990788e+02 -1.2730649120e+02 +2.9635390412e+02 3.4566681002e+02 1.0566000000e-01 0.0000e+00 -1.0000e+00
<mgrwt>
<rscale>  0 0.79970096E+03</rscale>
<asrwt>0</asrwt>
<pdfrwt beam="1">  1        2 0.36349333E+00 0.79970096E+03</pdfrwt>
<pdfrwt beam="2">  1       -2 0.27490258E-01 0.79970096E+03</pdfrwt>
<totfact> 0.51880956E+01</totfact>
</mgrwt>
</event>
<event>
 6      1 +1.8175624e-03 4.44622400e+02 7.81860800e-03 1.02933800e-01
        1 -1    0    0  501    0 +0.0000000000e+00 +0.0000000000e+00 +3.9841182678e+02 3.9841182681e+02 5.0400000000e-03 0.0000e+00 -1.0000e+00
       -1 -1    0    0    0  501 -0.0000000000e+00 -0.0000000000e+00 -1.2404821700e+02 1.2404821710e+02 5.0400000000e-03 0.0000e+00 1.0000e+00
      -13  1    1    2    0    0 +4.8902263647e+01 -4.2070821418e+00 -8.7600415446e+00 4.9858604291e+01 1.0566000000e-01 0.0000e+00 -1.0000e+00
       13  1    1    2    0    0 -1.5882278420e+01 -1.3583213613e+02 +2.1072455002e+02 2.5121198841e+02 1.0566000000e-01 0.0000e+00 -1.0000e+00
      -13  1    1    2    0    0 +1.7721220910e+01 +1.1607701846e+02 +1.0411440462e+02 1.5693226659e+02 1.0566000000e-01 0.0000e+00 1.0000e+00
       13  1    1    2    0    0 -5.0741206137e+01 +2.3962199815e+01 -3.1715303321e+01 6.4457184619e+01 1.0566000000e-01 0.0000e+00 1.0000e+00
<mgrwt>
<rscale>  0 0.44462243E+03</rscale>
<asrwt>0</asrwt>
<pdfrwt beam="1">  1        1 0.99602955E-01 0.44462243E+03</pdfrwt>
<pdfrwt beam="2">  1       -1 0.31012055E-01 0.44462243E+03</pdfrwt>
<totfact> 0.30280528E+02</totfact>
</mgrwt>
</event>
<event>
 6      1 +1.8175624e-03 3.01963400e+02 7.81860800e-03 1.08426300e-01
        2 -1    0    0  501    0 +0.0000000000e+00 +0.0000000000e+00 +7.9073746827e+01 7.9073746868e+01 2.5500000000e-03 0.0000e+00 1.0000e+00
       -2 -1    0    0    0  501 -0.0000000000e+00 -0.0000000000e+00 -2.8828114878e+02 2.8828114879e+02 2.5500000000e-03 0.0000e+00 -1.0000e+00
      -13  1    1    2    0    0 -6.9651623902e+01 +4.1511616251e+01 -1.3330599761e+02 1.5602904588e+02 1.0566000000e-01 0.0000e+00 -1.0000e+00
       13  1    1    2    0    0 +4.1374785289e+01 +1.5048306230e+01 -5.8263955422e+01 7.3027556741e+01 1.0566000000e-01 0.0000e+00 1.0000e+00
      -13  1    1    2    0    0 +3.9205513534e+01 -7.5935859444e+01 +2.5991990263e+01 8.9324810455e+01 1.0566000000e-01 0.0000e+00 1.0000e+00
       13  1    1    2    0    0 -1.0928674921e+01 +1.9375936963e+01 -4.3629439181e+01 4.8973482580e+01 1.0566000000e-01 0.0000e+00 -1.0000e+00
<mgrwt>
<rscale>  0 0.30196338E+03</rscale>
<asrwt>0</asrwt>
<pdfrwt beam="1">  1        2 0.19768437E-01 0.30196338E+03</pdfrwt>
<pdfrwt beam="2">  1       -2 0.72070285E-01 0.30196338E+03</pdfrwt>
<totfact> 0.50552532E+02</totfact>
</mgrwt>
</event>
<event>
 6      1 +1.8175624e-03 3.16589300e+02 7.81860800e-03 1.07723000e-01
        2 -1    0    0  501    0 +0.0000000000e+00 +0.0000000000e+00 +4.6761459986e+02 4.6761459987e+02 2.5500000000e-03 0.0000e+00 1.0000e+00
       -2 -1    0    0    0  501 -0.0000000000e+00 -0.0000000000e+00 -5.3585148247e+01 5.3585148308e+01 2.5500000000e-03 0.0000e+00 -1.0000e+00
      -13  1    1    2    0    0 +4.1673857723e+01 +2.0055519645e+01 +6.0824663340e+01 7.6410634863e+01 1.0566000000e-01 0.0000e+00 -1.0000e+00
       13  1    1    2    0    0 -4.5048354130e+01 +1.0292479719e+02 +1.7795357415e+02 2.1045273532e+02 1.0566000000e-01 0.0000e+00 1.0000e+00
      -13  1    1    2    0    0 -9.5571215655e+00 -4.3537290094e+01 +3.5613107100e+00 4.4716085466e+01 1.0566000000e-01 0.0000e+00 1.0000e+00
       13  1    1    2    0    0 +1.2931617973e+01 -7.9443026738e+01 +1.7168990342e+02 1.8962029253e+02 1.0566000000e-01 0.0000e+00 -1.0000e+00
<mgrwt>
<rscale>  0 0.31658931E+03</rscale>
<asrwt>0</asrwt>
<pdfrwt beam="1">  1        2 0.11690365E+00 0.31658931E+03</pdfrwt>
<pdfrwt beam="2">  1       -2 0.13396287E-01 0.31658931E+03</pdfrwt>
<totfact> 0.15647653E+03</totfact>
</mgrwt>
</event>
<event>
 6      1 +1.8175624e-03 2.03315100e+02 7.81860800e-03 1.14697200e-01
        2 -1    0    0  501    0 +0.0000000000e+00 +0.0000000000e+00 +1.5888408847e+02 1.5888408849e+02 2.5500000000e-03 0.0000e+00 -1.0000e+00
       -2 -1    0    0    0  501 -0.0000000000e+00 -0.0000000000e+00 -6.5042716861e+01 6.5042716911e+01 2.5500000000e-03 0.0000e+00 1.0000e+00
      -13  1    1    2    0    0 -2.3184657846e+01 +5.5795949023e+01 +2.8476898606e+01 6.6795667562e+01 1.0566000000e-01 0.0000e+00 1.0000e+00
       13  1    1    2    0    0 +7.1031371743e+00 +2.3302164339e+01 +3.9316159505e+01 4.6251670055e+01 1.0566000000e-01 0.0000e+00 1.0000e+00
      -13  1    1    2    0    0 -1.1058822024e+00 -4.5569056063e+01 -2.1346147113e+01 5.0333199844e+01 1.0566000000e-01 0.0000e+00 -1.0000e+00
       13  1    1    2    0    0 +1.7187402874e+01 -3.3529057299e+01 +4.7394460611e+01 6.0546267941e+01 1.0566000000e-01 0.0000e+00 -1.0000e+00
<mgrwt>
<rscale>  0 0.20331505E+03</rscale>
<asrwt>0</asrwt>
<pdfrwt beam="1">  1        2 0.39721022E-01 0.20331505E+03</pdfrwt>
<pdfrwt beam="2">  1       -2 0.16260679E-01 0.20331505E+03</pdfrwt>
<totfact> 0.37826453E+03</totfact>
</mgrwt>
</event>
<event>
 6      1 +1.8175624e-03 3.20138800e+02 7.81860800e-03 1.07558500e-01
       -1 -1    0    0    0  501 -0.0000000000e+00 +0.0000000000e+00 +5.6940064830e+01 5.6940065053e+01 5.0400000000e-03 0.0000e+00 1.0000e+00
        1 -1    0    0  501    0 +0.0000000000e+00 -0.0000000000e+00 -4.4998554589e+02 4.4998554591e+02 5.0400000000e-03 0.0000e+00 -1.0000e+00
      -13  1    1    2    0    0 +8.7019761059e+01 -2.5536720322e+01 -9.0401857548e+01 1.2805104416e+02 1.0566000000e-01 0.0000e+00 1.0000e+00
       13  1    1    2    0    0 +4.2365436311e+01 +1.0750883854e+00 -1.4591256452e+02 1.5194233662e+02 1.0566000000e-01 0.0000e+00 -1.0000e+00
      -13  1    1    2    0    0 -7.2878163061e+01 +5.9192451829e+01 -6.6975326032e+01 1.1532856743e+02 1.0566000000e-01 0.0000e+00 1.0000e+00
       13  1    1    2    0    0 -5.6507034310e+01 -3.4730819892e+01 -8.9755732959e+01 1.1160366275e+02 1.0566000000e-01 0.0000e+00 -1.0000e+00
<mgrwt>
<rscale>  0 0.32013876E+03</rscale>
<asrwt>0</asrwt>
<pdfrwt beam="1">  1        1 0.11249638E+00 0.32013876E+03</pdfrwt>
<pdfrwt beam="2">  1       -1 0.14235018E-01 0.32013876E+03</pdfrwt>
<totfact> 0.92434922E+02</totfact>
</mgrwt>
</event>
<event>
 6      1 +1.8175624e-03 1.62654000e+02 7.81860800e-03 1.18573300e-01
       -1 -1    0    0    0  501 -0.0000000000e+00 +0.0000000000e+00 +1.3929943374e+01 1.3929944286e+01 5.0400000000e-03 0.0000e+00 1.0000e+00
        1 -1    0    0  501    0 +0.0000000000e+00 -0.0000000000e+00 -4.7481023996e+02 4.7481023998e+02 5.0400000000e-03 0.0000e+00 -1.0000e+00
      -13  1    1    2    0    0 +2.4981944363e+01 +4.0205469409e+00 -2.4925097869e+01 3.5518080039e+01 1.0566000000e-01 0.0000e+00 1.0000e+00
       13  1    1    2    0    0 -4.8471134348e+00 +1.5987777617e+01 -2.9889816963e+01 3.4242018981e+01 1.0566000000e-01 0.0000e+00 -1.0000e+00
      -13  1    1    2    0    0 -6.0491015044e+01 -1.5464824071e+01 -2.5784591512e+02 2.6529766451e+02 1.0566000000e-01 0.0000e+00 1.0000e+00
       13  1    1    2    0    0 +4.0356184115e+01 -4.5435004866e+00 -1.4821946663e+02 1.5368242074e+02 1.0566000000e-01 0.0000e+00 -1.0000e+00
<mgrwt>
<rscale>  0 0.16265399E+03</rscale>
<asrwt>0</asrwt>
<pdfrwt beam="1">  1        1 0.11870251E+00 0.16265399E+03</pdfrwt>
<pdfrwt beam="2">  1       -1 0.34824875E-02 0.16265399E+03</pdfrwt>
<totfact> 0.71773883E+03</totfact>
</mgrwt>
</event>
<event>
 6      1 +1.8175624e-03 4.10534700e+02 7.81860800e-03 1.04019200e-01
        1 -1    0    0  501    0 +0.0000000000e+00 +0.0000000000e+00 +2.1191764107e+02 2.1191764113e+02 5.0400000000e-03 0.0000e+00 -1.0000e+00
       -1 -1    0    0    0  501 -0.0000000000e+00 -0.0000000000e+00 -1.9882571926e+02 1.9882571933e+02 5.0400000000e-03 0.0000e+00 1.0000e+00
      -13  1    1    2    0    0 -7.8522143824e+00 -8.0316416219e+01 +9.1188616561e+01 1.2176928570e+02 1.0566000000e-01 0.0000e+00 1.0000e+00
       13  1    1    2    0    0 -8.1677789733e+00 +2.7854513520e+01 +1.4812432583e+01 3.2588431380e+01 1.0566000000e-01 0.0000e+00 -1.0000e+00
      -13  1    1    2    0    0 +7.8046843223e+01 +7.3549811116e+01 -1.3952667700e+02 1.7597894536e+02 1.0566000000e-01 0.0000e+00 1.0000e+00
       13  1    1    2    0    0 -6.2026849867e+01 -2.1087908417e+01 +4.6617549657e+01 8.0406698016e+01 1.0566000000e-01 0.0000e+00 -1.0000e+00
<mgrwt>
<rscale>  0 0.41053466E+03</rscale>
<asrwt>0</asrwt>
<pdfrwt beam="1">  1        1 0.52979410E-01 0.41053466E+03</pdfrwt>
<pdfrwt beam="2">  1       -1 0.49706430E-01 0.41053466E+03</pdfrwt>
<totfact> 0.30465853E+02</totfact>
</mgrwt>
</event>
<event>
 6      1 +1.8175624e-03 3.93925400e+02 7.81860800e-03 1.04590400e-01
       -1 -1    0    0    0  501 -0.0000000000e+00 +0.0000000000e+00 +7.4977540319e+01 7.4977540489e+01 5.0400000000e-03 0.0000e+00 1.0000e+00
        1 -1    0    0  501    0 +0.0000000000e+00 -0.0000000000e+00 -5.1741233463e+02 5.1741233466e+02 5.0400000000e-03 0.0000e+00 -1.0000e+00
      -13  1    1    2    0    0 +2.0043671616e+01 -1.1221570139e+01 -5.3973222415e+01 5.8658267193e+01 1.0566000000e-01 0.0000e+00 -1.0000e+00
       13  1    1    2    0    0 +3.8508967415e+01 +1.2311029774e+02 -3.2258720128e+02 3.4742135740e+02 1.0566000000e-01 0.0000e+00 -1.0000e+00
      -13  1    1    2    0    0 -4.1544654463e+01 -5.9741770951e+01 -9.8520202373e+01 1.2247970832e+02 1.0566000000e-01 0.0000e+00 1.0000e+00
       13  1    1    2    0    0 -1.7007984568e+01 -5.2146956645e+01 +3.2645831760e+01 6.3830542233e+01 1.0566000000e-01 0.0000e+00 1.0000e+00
<mgrwt>
<rscale>  0 0.39392540E+03</rscale>
<asrwt>0</asrwt>
<pdfrwt beam="1">  1        1 0.12935307E+00 0.39392540E+03</pdfrwt>
<pdfrwt beam="2">  1       -1 0.18744387E-01 0.39392540E+03</pdfrwt>
<totfact> 0.47619788E+02</totfact>
</mgrwt>
</event>
<event>
 6      1 +1.8175624e-03 3.35373900e+02 7.81860800e-03 1.06878400e-01
       -2 -1    0    0    0  501 -0.0000000000e+00 +0.0000000000e+00 +2.4671588283e+01 2.4671588415e+01 2.5500000000e-03 0.0000e+00 1.0000e+00
        2 -1    0    0  501    0 +0.0000000000e+00 -0.0000000000e+00 -1.1397282587e+03 1.1397282587e+03 2.5500000000e-03 0.0000e+00 -1.0000e+00
      -13  1    1    2    0    0 +5.6045766426e+01 -5.5570942502e+01 -1.7138122038e+02 1.8868171997e+02 1.0566000000e-01 0.0000e+00 -1.0000e+00
       13  1    1    2    0    0 -1.0246282646e+02 +8.0409779894e+01 -5.1111750023e+02 5.2745186862e+02 1.0566000000e-01 0.0000e+00 -1.0000e+00
      -13  1    1    2    0    0 +3.0560167861e+01 -6.6423924340e+01 -2.7087204034e+02 2.8056681020e+02 1.0566000000e-01 0.0000e+00 1.0000e+00
       13  1    1    2    0    0 +1.5856892175e+01 +4.1585086948e+01 -1.6168590945e+02 1.6769944831e+02 1.0566000000e-01 0.0000e+00 1.0000e+00
<mgrwt>
<rscale>  0 0.33537386E+03</rscale>
<asrwt>0</asrwt>
<pdfrwt beam="1">  1        2 0.28493189E+00 0.33537386E+03</pdfrwt>
<pdfrwt beam="2">  1       -2 0.61679009E-02 0.33537386E+03</pdfrwt>
<totfact> 0.12537727E+03</totfact>
</mgrwt>
</event>
<event>
 6      1 +1.8175624e-03 2.74521800e+02 7.81860800e-03 1.09871900e-01
        2 -1    0    0  501    0 +0.0000000000e+00 +0.0000000000e+00 +1.8337336388e+02 1.8337336390e+02 2.5500000000e-03 0.0000e+00 -1.0000e+00
       -2 -1    0    0    0  501 -0.0000000000e+00 -0.0000000000e+00 -1.0274421347e+02 1.0274421350e+02 2.5500000000e-03 0.0000e+00 1.0000e+00
      -13  1    1    2    0    0 +8.8564146768e+01 +2.5624893656e+01 +2.9937233688e+01 9.6935506357e+01 1.0566000000e-01 0.0000e+00 1.0000e+00
       13  1    1    2    0    0 +1.0278897258e+01 +3.7180889685e+01 +2.2265875996e+01 4.4540483658e+01 1.0566000000e-01 0.0000e+00 1.0000e+00
      -13  1    1    2    0    0 +2.6974468437e+00 -3.6631483215e+01 +1.1009056226e+01 3.8345172643e+01 1.0566000000e-01 0.0000e+00 -1.0000e+00
       13  1    1    2    0    0 -1.0154049087e+02 -2.6174300125e+01 +1.7416984505e+01 1.0629641474e+02 1.0566000000e-01 0.0000e+00 -1.0000e+00
<mgrwt>
<rscale>  0 0.27452178E+03</rscale>
<asrwt>0</asrwt>
<pdfrwt beam="1">  1        2 0.45843341E-01 0.27452178E+03</pdfrwt>
<pdfrwt beam="2">  1       -2 0.25686054E-01 0.27452178E+03</pdfrwt>
<totfact> 0.14908838E+03</totfact>
</mgrwt>
</event>
<event>
 6      1 +1.8175624e-03 3.21986900e+02 7.81860800e-03 1.07473800e-01
       -4 -1    0    0    0  501 -0.0000000000e+00 +0.0000000000e+00 +4.5553604124e+02 4.5553781157e+02 1.2700000000e+00 0.0000e+00 1.0000e+00
        4 -1    0    0  501    0 +0.0000000000e+00 -0.0000000000e+00 -5.6888589851e+01 5.6902764038e+01 1.2700000000e+00 0.0000e+00 -1.0000e+00
      -13  1    1    2    0    0 -1.4457040215e+02 -5.7940415810e+01 +2.2689431431e+02 2.7520671139e+02 1.0566000000e-01 0.0000e+00 1.0000e+00
       13  1    1    2    0    0 +4.7697504517e+01 +3.4794244273e+01 +4.3229325093e+01 7.3174292506e+01 1.0566000000e-01 0.0000e+00 1.0000e+00
      -13  1    1    2    0    0 +8.3092300098e+01 +2.1677101237e+01 +1.2074262320e+02 1.4816551311e+02 1.0566000000e-01 0.0000e+00 -1.0000e+00
       13  1    1    2    0    0 +1.3780597535e+01 +1.4690702996e+00 +7.7811887821e+00 1.5894058602e+01 1.0566000000e-01 0.0000e+00 -1.0000e+00
<mgrwt>
<rscale>  0 0.32198688E+03</rscale>
<asrwt>0</asrwt>
<pdfrwt beam="1">  1        4 0.14224141E-01 0.32198688E+03</pdfrwt>
<pdfrwt beam="2">  1       -4 0.11388600E+00 0.32198688E+03</pdfrwt>
<totfact> 0.48555933E+01</totfact>
</mgrwt>
</event>
<event>
 6      1 +1.8175624e-03 4.09833000e+02 7.81860800e-03 1.04042700e-01
       -1 -1    0    0    0  501 -0.0000000000e+00 +0.0000000000e+00 +2.0502945080e+02 2.0502945086e+02 5.0400000000e-03 0.0000e+00 1.0000e+00
        1 -1    0    0  501    0 +0.0000000000e+00 -0.0000000000e+00 -2.0480360230e+02 2.0480360236e+02 5.0400000000e-03 0.0000e+00 -1.0000e+00
      -13  1    1    2    0    0 +1.1194852314e+02 -1.2640858327e+02 +5.4155781277e+01 1.7732586266e+02 1.0566000000e-01 0.0000e+00 1.0000e+00
       13  1    1    2    0    0 -2.4351751966e+01 +7.3315680689e+01 -3.7937054589e+01 8.6066416990e+01 1.0566000000e-01 0.0000e+00 -1.0000e+00
      -13  1    1    2    0    0 -1.0059735986e+02 +2.2255584304e+01 +1.0767832289e+01 1.0359100935e+02 1.0566000000e-01 0.0000e+00 1.0000e+00
       13  1    1    2    0    0 +1.3000588682e+01 +3.0837318279e+01 -2.6760710477e+01 4.2849764223e+01 1.0566000000e-01 0.0000e+00 -1.0000e+00
<mgrwt>
<rscale>  0 0.40983299E+03</rscale>
<asrwt>0</asrwt>
<pdfrwt beam="1">  1        1 0.51200901E-01 0.40983299E+03</pdfrwt>
<pdfrwt beam="2">  1       -1 0.51257363E-01 0.40983299E+03</pdfrwt>
<totfact> 0.30052598E+02</totfact>
</mgrwt>
</event>
<event>
 6      1 +1.8175624e-03 1.32024700e+02 7.81860800e-03 1.22448200e-01
       -3 -1    0    0    0  501 -0.0000000000e+00 +0.0000000000e+00 +9.8582782103e+01 9.8582833841e+01 1.0100000000e-01 0.0000e+00 1.0000e+00
        3 -1    0    0  501    0 +0.0000000000e+00 -0.0000000000e+00 -4.4202624471e+01 4.4202739860e+01 1.0100000000e-01 0.0000e+00 -1.0000e+00
      -13  1    1    2    0    0 +4.3570842811e+01 -6.8432964713e+00 +4.8792958936e+01 6.5772433858e+01 1.0566000000e-01 0.0000e+00 1.0000e+00
       13  1    1    2    0    0 -1.0106750108e+01 -7.3708061319e+00 +5.0210250318e+00 1.3479504337e+01 1.0566000000e-01 0.0000e+00 -1.0000e+00
      -13  1    1    2    0    0 -5.4214922591e+00 -1.9113319104e+01 +1.8924480173e+00 1.9957556690e+01 1.0566000000e-01 0.0000e+00 1.0000e+00
       13  1    1    2    0    0 -2.8042600444e+01 +3.3327421707e+01 -1.3262743532e+00 4.3576078816e+01 1.0566000000e-01 0.0000e+00 -1.0000e+00
<mgrwt>
<rscale>  0 0.13202469E+03</rscale>
<asrwt>0</asrwt>
<pdfrwt beam="1">  1        3 0.11050677E-01 0.13202469E+03</pdfrwt>
<pdfrwt beam="2">  1       -3 0.24645716E-01 0.13202469E+03</pdfrwt>
<totfact> 0.21941979E+03</totfact>
</mgrwt>
</event>
<event>
 7      1 +1.8175624e-03 9.24233800e+01 7.81860800e-03 1.29708700e-01
        3 -1    0    0  501    0 +0.0000000000e+00 +0.0000000000e+00 +1.7864982509e+02 1.7864985364e+02 1.0100000000e-01 0.0000e+00 -1.0000e+00
       -3 -1    0    0    0  501 -0.0000000000e+00 -0.0000000000e+00 -1.1953423424e+01 1.1953850114e+01 1.0100000000e-01 0.0000e+00 1.0000e+00
       23  2    1    2    0    0 +2.6645352591e-15 +1.7763568394e-15 +1.6669640167e+02 1.9060370375e+02 9.2423382088e+01 0.0000e+00 0.0000e+00
      -13  1    3    3    0    0 -1.3363659974e+01 -1.7038994917e+00 +2.8495383880e+01 3.1519656532e+01 1.0566000000e-01 0.0000e+00 1.0000e+00
       13  1    3    3    0    0 +1.6616315613e+01 -2.1171866558e+01 +5.5804617124e+01 6.1955761108e+01 1.0566000000e-01 0.0000e+00 -1.0000e+00
      -13  1    3    3    0    0 -1.4003454222e+00 -1.1759989732e+01 +6.1098813875e+00 1.3326670267e+01 1.0566000000e-01 0.0000e+00 -1.0000e+00
       13  1    3    3    0    0 -1.8523102166e+00 +3.4635755781e+01 +7.6286519275e+01 8.3801615849e+01 1.0566000000e-01 0.0000e+00 1.0000e+00
<mgrwt>
<rscale>  0 0.92423382E+02</rscale>
<asrwt>0</asrwt>
<pdfrwt beam="1">  1        3 0.44662512E-01 0.92423382E+02</pdfrwt>
<pdfrwt beam="2">  1       -3 0.29884128E-02 0.92423382E+02</pdfrwt>
<totfact> 0.53840915E+03</totfact>
</mgrwt>
</event>
<event>
 6      1 +1.8175624e-03 1.79156000e+02 7.81860800e-03 1.16862200e-01
        2 -1    0    0  501    0 +0.0000000000e+00 +0.0000000000e+00 +7.6838814774e+01 7.6838814816e+01 2.5500000000e-03 0.0000e+00 -1.0000e+00
       -2 -1    0    0    0  501 -0.0000000000e+00 -0.0000000000e+00 -1.0442917580e+02 1.0442917583e+02 2.5500000000e-03 0.0000e+00 1.0000e+00
      -13  1    1    2    0    0 +4.7173069657e-01 -1.1177345744e+01 +5.3557953021e-01 1.1200607002e+01 1.0566000000e-01 0.0000e+00 1.0000e+00
       13  1    1    2    0    0 +4.3963315774e+01 -2.6106144767e+01 -5.3410758905e+01 7.3939328231e+01 1.0566000000e-01 0.0000e+00 1.0000e+00
      -13  1    1    2    0    0 -1.3370195357e+01 -1.2475702582e+01 +3.2231641411e+01 3.7057997125e+01 1.0566000000e-01 0.0000e+00 -1.0000e+00
       13  1    1    2    0    0 -3.1064851114e+01 +4.9759193093e+01 -6.9468230664e+00 5.9070058293e+01 1.0566000000e-01 0.0000e+00 -1.0000e+00
<mgrwt>
<rscale>  0 0.17915596E+03</rscale>
<asrwt>0</asrwt>
<pdfrwt beam="1">  1        2 0.19209704E-01 0.17915596E+03</pdfrwt>
<pdfrwt beam="2">  1       -2 0.26107294E-01 0.17915596E+03</pdfrwt>
<totfact> 0.37296978E+03</totfact>
</mgrwt>
</event>
<event>
 6      1 +1.8175624e-03 1.96303700e+02 7.81860800e-03 1.15289600e-01
       -4 -1    0    0    0  501 -0.0000000000e+00 +0.0000000000e+00 +7.5270743126e+01 7.5281456354e+01 1.2700000000e+00 0.0000e+00 1.0000e+00
        4 -1    0    0  501    0 +0.0000000000e+00 -0.0000000000e+00 -1.2796551496e+02 1.2797181690e+02 1.2700000000e+00 0.0000e+00 -1.0000e+00
      -13  1    1    2    0    0 -7.5340029280e+00 +2.1403907094e+01 +2.1748475230e+01 3.1430809374e+01 1.0566000000e-01 0.0000e+00 1.0000e+00
       13  1    1    2    0    0 +6.1628375629e-01 +2.1680279174e+01 +1.5302304754e+01 2.6544038983e+01 1.0566000000e-01 0.0000e+00 -1.0000e+00
      -13  1    1    2    0    0 -4.6838885127e+01 -1.2445688577e+01 -2.1087870047e+01 5.2853436513e+01 1.0566000000e-01 0.0000e+00 -1.0000e+00
       13  1    1    2    0    0 +5.3756604299e+01 -3.0638497690e+01 -6.8657681774e+01 9.2424988380e+01 1.0566000000e-01 0.0000e+00 1.0000e+00
<mgrwt>
<rscale>  0 0.19630373E+03</rscale>
<asrwt>0</asrwt>
<pdfrwt beam="1">  1        4 0.31993505E-01 0.19630373E+03</pdfrwt>
<pdfrwt beam="2">  1       -4 0.18819813E-01 0.19630373E+03</pdfrwt>
<totfact> 0.41991625E+02</totfact>
</mgrwt>
</event>
<event>
 6      1 +1.8175624e-03 7.47125600e+02 7.81860800e-03 9.63987100e-02
       -2 -1    0    0    0  501 -0.0000000000e+00 +0.0000000000e+00 +1.4433086459e+02 1.4433086461e+02 2.5500000000e-03 0.0000e+00 1.0000e+00
        2 -1    0    0  501    0 +0.0000000000e+00 -0.0000000000e+00 -9.6686994521e+02 9.6686994522e+02 2.5500000000e-03 0.0000e+00 -1.0000e+00
      -13  1    1    2    0    0 -6.1677772492e+01 +5.6829105913e+01 -2.2163666660e+02 2.3697366529e+02 1.0566000000e-01 0.0000e+00 1.0000e+00
       13  1    1    2    0    0 -1.4962370513e+02 +3.5338600719e+01 -1.3723952694e+02 2.0608437291e+02 1.0566000000e-01 0.0000e+00 1.0000e+00
      -13  1    1    2    0    0 -1.1096080671e+02 -9.3412419644e-01 -2.4278117239e+02 2.6693797415e+02 1.0566000000e-01 0.0000e+00 -1.0000e+00
       13  1    1    2    0    0 +3.2226228433e+02 -9.1233582435e+01 -2.2088171470e+02 4.0120479748e+02 1.0566000000e-01 0.0000e+00 -1.0000e+00
<mgrwt>
<rscale>  0 0.74712563E+03</rscale>
<asrwt>0</asrwt>
<pdfrwt beam="1">  1        2 0.24171747E+00 0.74712563E+03</pdfrwt>
<pdfrwt beam="2">  1       -2 0.36082719E-01 0.74712563E+03</pdfrwt>
<totfact> 0.85331673E+01</totfact>
</mgrwt>
</event>
<event>
 6      1 +1.8175624e-03 2.38069900e+02 7.81860800e-03 1.12108500e-01
        2 -1    0    0  501    0 +0.0000000000e+00 +0.0000000000e+00 +4.8600322542e+02 4.8600322543e+02 2.5500000000e-03 0.0000e+00 -1.0000e+00
       -2 -1    0    0    0  501 -0.0000000000e+00 -0.0000000000e+00 -2.9154777103e+01 2.9154777215e+01 2.5500000000e-03 0.0000e+00 1.0000e+00
      -13  1    1    2    0    0 +2.1862346861e+01 +6.1201145361e+01 +4.1493135920e+01 7.7105342852e+01 1.0566000000e-01 0.0000e+00 1.0000e+00
       13  1    1    2    0    0 -4.8232976616e+01 +1.1284335232e+01 +2.1866721267e+02 2.2420775481e+02 1.0566000000e-01 0.0000e+00 -1.0000e+00
      -13  1    1    2    0    0 +2.9184830725e+01 -3.8831680378e+01 +9.5057508200e+01 1.0675015117e+02 1.0566000000e-01 0.0000e+00 1.0000e+00
       13  1    1    2    0    0 -2.8142009695e+00 -3.3653800215e+01 +1.0163059153e+02 1.0709475381e+02 1.0566000000e-01 0.0000e+00 -1.0000e+00
<mgrwt>
<rscale>  0 0.23806987E+03</rscale>
<asrwt>0</asrwt>
<pdfrwt beam="1">  1        2 0.12150080E+00 0.23806987E+03</pdfrwt>
<pdfrwt beam="2">  1       -2 0.72886945E-02 0.23806987E+03</pdfrwt>
<totfact> 0.39211472E+03</totfact>
</mgrwt>
</event>
<event>
 6      1 +1.8175624e-03 2.86631600e+02 7.81860800e-03 1.09212100e-01
       -2 -1    0    0    0  501 -0.0000000000e+00 +0.0000000000e+00 +1.2633391516e+02 1.2633391519e+02 2.5500000000e-03 0.0000e+00 -1.0000e+00
        2 -1    0    0  501    0 +0.0000000000e+00 -0.0000000000e+00 -1.6258041720e+02 1.6258041722e+02 2.5500000000e-03 0.0000e+00 1.0000e+00
      -13  1    1    2    0    0 +1.0725961976e+01 -4.1647792539e+01 -6.4058971609e+01 7.7156645154e+01 1.0566000000e-01 0.0000e+00 -1.0000e+00
       13  1    1    2    0    0 -6.1177929277e+01 +4.5918785828e+01 +3.4460166680e+01 8.3897486102e+01 1.0566000000e-01 0.0000e+00 1.0000e+00
      -13  1    1    2    0    0 -1.2758506140e+00 +1.0478696950e+01 -5.4714253387e+01 5.5723348538e+01 1.0566000000e-01 0.0000e+00 1.0000e+00
       13  1    1    2    0    0 +5.1727817915e+01 -1.4749690238e+01 +4.8066556279e+01 7.2136852613e+01 1.0566000000e-01 0.0000e+00 -1.0000e+00
<mgrwt>
<rscale>  0 0.28663161E+03</rscale>
<asrwt>0</asrwt>
<pdfrwt beam="1">  1        2 0.40645104E-01 0.28663161E+03</pdfrwt>
<pdfrwt beam="2">  1       -2 0.31583479E-01 0.28663161E+03</pdfrwt>
<totfact> 0.11694826E+03</totfact>
</mgrwt>
</event>
<event>
 6      1 +1.8175624e-03 2.88693500e+02 7.81860800e-03 1.09103300e-01
       -2 -1    0    0    0  501 -0.0000000000e+00 +0.0000000000e+00 +3.6556937186e+01 3.6556937275e+01 2.5500000000e-03 0.0000e+00 1.0000e+00
        2 -1    0    0  501    0 +0.0000000000e+00 -0.0000000000e+00 -5.6995963157e+02 5.6995963158e+02 2.5500000000e-03 0.0000e+00 -1.0000e+00
      -13  1    1    2    0    0 -3.3756697641e+01 -1.0746081595e+01 +3.4343985863e+00 3.5592122204e+01 1.0566000000e-01 0.0000e+00 1.0000e+00
       13  1    1    2    0    0 +4.5336509984e+01 -5.2668647690e+01 -2.6204564451e+02 2.7110388518e+02 1.0566000000e-01 0.0000e+00 -1.0000e+00
      -13  1    1    2    0    0 -4.1085628740e+01 +1.9367678618e+01 -2.1570602651e+02 2.2043646908e+02 1.0566000000e-01 0.0000e+00 1.0000e+00
       13  1    1    2    0    0 +2.9505816396e+01 +4.4047050667e+01 -5.9085421954e+01 7.9384092393e+01 1.0566000000e-01 0.0000e+00 -1.0000e+00
<mgrwt>
<rscale>  0 0.28869346E+03</rscale>
<asrwt>0</asrwt>
<pdfrwt beam="1">  1        2 0.14248988E+00 0.28869346E+03</pdfrwt>
<pdfrwt beam="2">  1       -2 0.91392361E-02 0.28869346E+03</pdfrwt>
<totfact> 0.22369733E+03</totfact>
</mgrwt>
</event>
<event>
 6      1 +1.8175624e-03 2.21783100e+02 7.81860800e-03 1.13256100e-01
        2 -1    0    0  501    0 +0.0000000000e+00 +0.0000000000e+00 +1.7508130358e+02 1.7508130359e+02 2.5500000000e-03 0.0000e+00 -1.0000e+00
       -2 -1    0    0    0  501 -0.0000000000e+00 -0.0000000000e+00 -7.0235576610e+01 7.0235576656e+01 2.5500000000e-03 0.0000e+00 1.0000e+00
      -13  1    1    2    0    0 +2.9454835924e+01 +3.9599888186e+00 +1.1565313025e+01 3.1891009707e+01 1.0566000000e-01 0.0000e+00 1.0000e+00
       13  1    1    2    0    0 -1.9985247535e+01 +3.4884884997e+01 -3.5227775661e+01 5.3454397970e+01 1.0566000000e-01 0.0000e+00 1.0000e+00
      -13  1    1    2    0    0 -2.8063438198e+01 +1.7740393721e+01 +6.4463235571e+01 7.2510675333e+01 1.0566000000e-01 0.0000e+00 -1.0000e+00
       13  1    1    2    0    0 +1.8593849809e+01 -5.6585267537e+01 +6.4044954030e+01 8.7460797239e+01 1.0566000000e-01 0.0000e+00 -1.0000e+00
<mgrwt>
<rscale>  0 0.22178310E+03</rscale>
<asrwt>0</asrwt>
<pdfrwt beam="1">  1        2 0.43770325E-01 0.22178310E+03</pdfrwt>
<pdfrwt beam="2">  1       -2 0.17558894E-01 0.22178310E+03</pdfrwt>
<totfact> 0.30072120E+03</totfact>
</mgrwt>
</event>
<event>
 6      1 +1.8175624e-03 3.63711700e+02 7.81860800e-03 1.05712400e-01
       -2 -1    0    0    0  501 -0.0000000000e+00 +0.0000000000e+00 +1.1034632989e+02 1.1034632992e+02 2.5500000000e-03 0.0000e+00 -1.0000e+00
        2 -1    0    0  501    0 +0.0000000000e+00 -0.0000000000e+00 -2.9970685055e+02 2.9970685056e+02 2.5500000000e-03 0.0000e+00 1.0000e+00
      -13  1    1    2    0    0 -3.4871267086e+01 +5.8229387055e+01 -4.0584979243e+01 7.9081088063e+01 1.0566000000e-01 0.0000e+00 1.0000e+00
       13  1    1    2    0    0 -4.5813266861e+01 -2.4001900989e+01 +3.0484884361e+01 6.0035706126e+01 1.0566000000e-01 0.0000e+00 -1.0000e+00
      -13  1    1    2    0    0 +9.9964271840e+01 +5.0660871570e+01 -7.3782372481e+01 1.3417611265e+02 1.0566000000e-01 0.0000e+00 -1.0000e+00
       13  1    1    2    0    0 -1.9279737893e+01 -8.4888357636e+01 -1.0547805330e+02 1.3676027364e+02 1.0566000000e-01 0.0000e+00 1.0000e+00
<mgrwt>
<rscale>  0 0.36371170E+03</rscale>
<asrwt>0</asrwt>
<pdfrwt beam="1">  1        2 0.74926711E-01 0.36371170E+03</pdfrwt>
<pdfrwt beam="2">  1       -2 0.27586583E-01 0.36371170E+03</pdfrwt>
<totfact> 0.76596974E+02</totfact>
</mgrwt>
</event>
<event>
 6      1 +1.8175624e-03 3.40604600e+02 7.81860800e-03 1.06653900e-01
       -2 -1    0    0    0  501 -0.0000000000e+00 +0.0000000000e+00 +7.7266875800e+01 7.7266875842e+01 2.5500000000e-03 0.0000e+00 1.0000e+00
        2 -1    0    0  501    0 +0.0000000000e+00 -0.0000000000e+00 -3.7535973117e+02 3.7535973117e+02 2.5500000000e-03 0.0000e+00 -1.0000e+00
      -13  1    1    2    0    0 -1.1302036018e+01 -5.0272697673e+01 -5.1723496162e+01 7.3009666269e+01 1.0566000000e-01 0.0000e+00 1.0000e+00
       13  1    1    2    0    0 +6.2800320256e+01 -3.5883553108e+01 -1.1633532064e+02 1.3698696142e+02 1.0566000000e-01 0.0000e+00 -1.0000e+00
      -13  1    1    2    0    0 +2.9737483032e+00 +5.5389533964e+01 +3.5372380589e+01 6.5787993770e+01 1.0566000000e-01 0.0000e+00 1.0000e+00
       13  1    1    2    0    0 -5.4472032541e+01 +3.0766716817e+01 -1.6540641916e+02 1.7684198556e+02 1.0566000000e-01 0.0000e+00 -1.0000e+00
<mgrwt>
<rscale>  0 0.34060460E+03</rscale>
<asrwt>0</asrwt>
<pdfrwt beam="1">  1        2 0.93839928E-01 0.34060460E+03</pdfrwt>
<pdfrwt beam="2">  1       -2 0.19316720E-01 0.34060460E+03</pdfrwt>
<totfact> 0.11065114E+03</totfact>
</mgrwt>
</event>
<event>
 6      1 +1.8175624e-03 2.58423200e+02 7.81860800e-03 1.10809400e-01
       -3 -1    0    0    0  501 -0.0000000000e+00 +0.0000000000e+00 +1.3065203975e+02 1.3065207879e+02 1.0100000000e-01 0.0000e+00 1.0000e+00
        3 -1    0    0  501    0 +0.0000000000e+00 -0.0000000000e+00 -1.2778694175e+02 1.2778698166e+02 1.0100000000e-01 0.0000e+00 -1.0000e+00
      -13  1    1    2    0    0 -1.6391703072e+01 +9.0552776871e+00 +2.7573896283e+01 3.3331920195e+01 1.0566000000e-01 0.0000e+00 1.0000e+00
       13  1    1    2    0    0 +4.2929995085e+01 +1.8157224909e+01 -8.0226897981e+01 9.2784888953e+01 1.0566000000e-01 0.0000e+00 -1.0000e+00
      -13  1    1    2    0    0 -5.8221740336e+01 -4.1809009907e+01 +6.4362432490e+01 9.6334304572e+01 1.0566000000e-01 0.0000e+00 -1.0000e+00
       13  1    1    2    0    0 +3.1683448323e+01 +1.4596507311e+01 -8.8443327925e+00 3.5987946731e+01 1.0566000000e-01 0.0000e+00 1.0000e+00
<mgrwt>
<rscale>  0 0.25842318E+03</rscale>
<asrwt>0</asrwt>
<pdfrwt beam="1">  1        3 0.31946745E-01 0.25842318E+03</pdfrwt>
<pdfrwt beam="2">  1       -3 0.32663020E-01 0.25842318E+03</pdfrwt>
<totfact> 0.21879364E+02</totfact>
</mgrwt>
</event>
<event>
 6      1 +1.8175624e-03 4.21326200e+02 7.81860800e-03 1.03663600e-01
       -1 -1    0    0    0  501 -0.0000000000e+00 +0.0000000000e+00 +2.8386027069e+02 2.8386027073e+02 5.0400000000e-03 0.0000e+00 1.0000e+00
        1 -1    0    0  501    0 +0.0000000000e+00 -0.0000000000e+00 -1.5634080111e+02 1.5634080119e+02 5.0400000000e-03 0.0000e+00 -1.0000e+00
      -13  1    1    2    0    0 +2.4816367815e+01 -1.8855686628e+01 -1.8321704498e+01 3.6153631207e+01 1.0566000000e-01 0.0000e+00 1.0000e+00
       13  1    1    2    0    0 -1.4839904126e+02 +1.8005944050e+01 -3.0710570566e+01 1.5260943541e+02 1.0566000000e-01 0.0000e+00 -1.0000e+00
      -13  1    1    2    0    0 +1.3688966968e+02 +1.7343978123e+01 +9.5871497470e+01 1.6802068454e+02 1.0566000000e-01 0.0000e+00 1.0000e+00
       13  1    1    2    0    0 -1.3306996235e+01 -1.6494235545e+01 +8.0680247173e+01 8.3417320761e+01 1.0566000000e-01 0.0000e+00 -1.0000e+00
<mgrwt>
<rscale>  0 0.42132620E+03</rscale>
<asrwt>0</asrwt>
<pdfrwt beam="1">  1        1 0.39085201E-01 0.42132620E+03</pdfrwt>
<pdfrwt beam="2">  1       -1 0.70965067E-01 0.42132620E+03</pdfrwt>
<totfact> 0.22474262E+02</totfact>
</mgrwt>
</event>
<event>
 6      1 +1.8175624e-03 1.95052400e+02 7.81860800e-03 1.15398200e-01
       -1 -1    0    0    0  501 -0.0000000000e+00 +0.0000000000e+00 +1.2236339389e+02 1.2236339399e+02 5.0400000000e-03 0.0000e+00 1.0000e+00
        1 -1    0    0  501    0 +0.0000000000e+00 -0.0000000000e+00 -7.7730402429e+01 7.7730402593e+01 5.0400000000e-03 0.0000e+00 -1.0000e+00
      -13  1    1    2    0    0 +4.1229516294e+01 +2.3164445611e+01 +1.0396469973e+01 4.8420680564e+01 1.0566000000e-01 0.0000e+00 1.0000e+00
       13  1    1    2    0    0 -3.7759227332e+01 -2.4063378206e+01 +3.7011544415e+00 4.4927888084e+01 1.0566000000e-01 0.0000e+00 -1.0000e+00
      -13  1    1    2    0    0 -2.9255684876e+01 -4.1333086162e+01 +2.6355826397e+01 5.7087300324e+01 1.0566000000e-01 0.0000e+00 1.0000e+00
       13  1    1    2    0    0 +2.5785395914e+01 +4.2232018757e+01 +4.1795406472e+00 4.9657927613e+01 1.0566000000e-01 0.0000e+00 -1.0000e+00
<mgrwt>
<rscale>  0 0.19505236E+03</rscale>
<asrwt>0</asrwt>
<pdfrwt beam="1">  1        1 0.19432601E-01 0.19505236E+03</pdfrwt>
<pdfrwt beam="2">  1       -1 0.30590848E-01 0.19505236E+03</pdfrwt>
<totfact> 0.25781301E+03</totfact>
</mgrwt>
</event>
<event>
 6      1 +1.8175624e-03 3.32217800e+02 7.81860800e-03 1.07016000e-01
       -2 -1    0    0    0  501 -0.0000000000e+00 +0.0000000000e+00 +6.0312815259e+01 6.0312815313e+01 2.5500000000e-03 0.0000e+00 1.0000e+00
        2 -1    0    0  501    0 +0.0000000000e+00 -0.0000000000e+00 -4.5748442064e+02 4.5748442065e+02 2.5500000000e-03 0.0000e+00 -1.0000e+00
      -13  1    1    2    0    0 +1.7507136505e+01 -9.8532751838e+01 -5.6104110354e+01 1.1472961856e+02 1.0566000000e-01 0.0000e+00 1.0000e+00
       13  1    1    2    0    0 -6.2835017227e+01 +1.3882118744e+01 -1.5648138717e+02 1.6919630110e+02 1.0566000000e-01 0.0000e+00 -1.0000e+00
      -13  1    1    2    0    0 +4.5355074136e+01 -9.9291694980e+00 -8.2779221207e+01 9.4910914991e+01 1.0566000000e-01 0.0000e+00 -1.0000e+00
       13  1    1    2    0    0 -2.7193412873e-02 +9.4579802592e+01 -1.0180688665e+02 1.3896040131e+02 1.0566000000e-01 0.0000e+00 1.0000e+00
<mgrwt>
<rscale>  0 0.33221784E+03</rscale>
<asrwt>0</asrwt>
<pdfrwt beam="1">  1        2 0.11437109E+00 0.33221784E+03</pdfrwt>
<pdfrwt beam="2">  1       -2 0.15078205E-01 0.33221784E+03</pdfrwt>
<totfact> 0.13225698E+03</totfact>
</mgrwt>
</event>
<event>
 6      1 +1.8175624e-03 3.07417600e+02 7.81860800e-03 1.08159000e-01
       -2 -1    0    0    0  501 -0.0000000000e+00 +0.0000000000e+00 +8.9765984009e+01 8.9765984045e+01 2.5500000000e-03 0.0000e+00 -1.0000e+00
        2 -1    0    0  501    0 +0.0000000000e+00 -0.0000000000e+00 -2.6319980162e+02 2.6319980163e+02 2.5500000000e-03 0.0000e+00 1.0000e+00
      -13  1    1    2    0    0 +1.2076039960e+01 +8.2835760788e+00 +1.0163091615e+01 1.7825486501e+01 1.0566000000e-01 0.0000e+00 1.0000e+00
       13  1    1    2    0    0 +2.6597424785e+01 +6.1755549012e+01 +1.1892608971e+01 6.8283351933e+01 1.0566000000e-01 0.0000e+00 -1.0000e+00
      -13  1    1    2    0    0 -5.8078142672e+01 +3.8314545836e+01 -5.6972486995e+01 8.9927473651e+01 1.0566000000e-01 0.0000e+00 1.0000e+00
       13  1    1    2    0    0 +1.9404677927e+01 -1.0835367093e+02 -1.3851703120e+02 1.7692947359e+02 1.0566000000e-01 0.0000e+00 -1.0000e+00
<mgrwt>
<rscale>  0 0.30741756E+03</rscale>
<asrwt>0</asrwt>
<pdfrwt beam="1">  1        2 0.65799949E-01 0.30741756E+03</pdfrwt>
<pdfrwt beam="2">  1       -2 0.22441497E-01 0.30741756E+03</pdfrwt>
<totfact> 0.12775704E+03</totfact>
</mgrwt>
</event>
<event>
 6      1 +1.8175624e-03 8.82115700e+02 7.81860800e-03 9.44821800e-02
        2 -1    0    0  501    0 +0.0000000000e+00 +0.0000000000e+00 +6.8715703700e+02 6.8715703700e+02 2.5500000000e-03 0.0000e+00 -1.0000e+00
       -2 -1    0    0    0  501 -0.0000000000e+00 -0.0000000000e+00 -2.8309692041e+02 2.8309692042e+02 2.5500000000e-03 0.0000e+00 1.0000e+00
      -13  1    1    2    0    0 -1.6908931659e+01 +3.8242963205e+01 -3.0627578071e+01 5.1831418147e+01 1.0566000000e-01 0.0000e+00 1.0000e+00
       13  1    1    2    0    0 +3.7740711384e+02 +7.6560255281e+01 +3.5051336703e+02 5.2072760047e+02 1.0566000000e-01 0.0000e+00 -1.0000e+00
      -13  1    1    2    0    0 -3.4076141815e+02 -9.1247429964e+01 +5.8363254288e+01 3.5756218786e+02 1.0566000000e-01 0.0000e+00 1.0000e+00
       13  1    1    2    0    0 -1.9736764028e+01 -2.3555788522e+01 +2.5811073345e+01 4.0132750945e+01 1.0566000000e-01 0.0000e+00 -1.0000e+00
<mgrwt>
<rscale>  0 0.88211573E+03</rscale>
<asrwt>0</asrwt>
<pdfrwt beam="1">  1        2 0.17178926E+00 0.88211573E+03</pdfrwt>
<pdfrwt beam="2">  1       -2 0.70774230E-01 0.88211573E+03</pdfrwt>
<totfact> 0.38821719E+01</totfact>
</mgrwt>
</event>
<event>
 6      1 +1.8175624e-03 2.79577500e+02 7.81860800e-03 1.09592000e-01
       -1 -1    0    0    0  501 -0.0000000000e+00 +0.0000000000e+00 +7.3728673484e+02 7.3728673485e+02 5.0400000000e-03 0.0000e+00 1.0000e+00
        1 -1    0    0  501    0 +0.0000000000e+00 -0.0000000000e+00 -2.6503782895e+01 2.6503783374e+01 5.0400000000e-03 0.0000e+00 -1.0000e+00
      -13  1    1    2    0    0 +4.2437961149e+01 +7.5782502673e+01 +2.1946117778e+02 2.3602370215e+02 1.0566000000e-01 0.0000e+00 1.0000e+00
       13  1    1    2    0    0 -6.2598761085e+01 -1.0082432329e+01 +1.4336259801e+02 1.5675811304e+02 1.0566000000e-01 0.0000e+00 -1.0000e+00
      -13  1    1    2    0    0 +6.2203792152e+01 -5.2205869602e+01 +1.8237458952e+02 1.9963783871e+02 1.0566000000e-01 0.0000e+00 -1.0000e+00
       13  1    1    2    0    0 -4.2042992215e+01 -1.3494200742e+01 +1.6558458663e+02 1.7137086433e+02 1.0566000000e-01 0.0000e+00 1.0000e+00
<mgrwt>
<rscale>  0 0.27957745E+03</rscale>
<asrwt>0</asrwt>
<pdfrwt beam="1">  1        1 0.66259456E-02 0.27957745E+03</pdfrwt>
<pdfrwt beam="2">  1       -1 0.18432169E+00 0.27957745E+03</pdfrwt>
<totfact> 0.24043293E+02</totfact>
</mgrwt>
</event>
<event>
 6      1 +1.8175624e-03 2.21253100e+02 7.81860800e-03 1.13295200e-01
        1 -1    0    0  501    0 +0.0000000000e+00 +0.0000000000e+00 +4.8786392520e+01 4.8786392781e+01 5.0400000000e-03 0.0000e+00 -1.0000e+00
       -1 -1    0    0    0  501 -0.0000000000e+00 -0.0000000000e+00 -2.5085349577e+02 2.5085349582e+02 5.0400000000e-03 0.0000e+00 1.0000e+00
      -13  1    1    2    0    0 -2.1634357368e-01 -1.7720901246e+01 -1.2728646174e+01 2.1819870370e+01 1.0566000000e-01 0.0000e+00 1.0000e+00
       13  1    1    2    0    0 -2.3010276475e+01 -4.7542349096e+01 -1.7000697010e+02 1.7802283232e+02 1.0566000000e-01 0.0000e+00 -1.0000e+00
      -13  1    1    2    0    0 -2.4765839854e+01 +1.8779499263e+01 -6.8838760046e+00 3.1834184914e+01 1.0566000000e-01 0.0000e+00 1.0000e+00
       13  1    1    2    0    0 +4.7992459903e+01 +4.6483751080e+01 -1.2447610976e+01 6.7963001001e+01 1.0566000000e-01 0.0000e+00 -1.0000e+00
<mgrwt>
<rscale>  0 0.22125313E+03</rscale>
<asrwt>0</asrwt>
<pdfrwt beam="1">  1        1 0.12196599E-01 0.22125313E+03</pdfrwt>
<pdfrwt beam="2">  1       -1 0.62713371E-01 0.22125313E+03</pdfrwt>
<totfact> 0.13016361E+03</totfact>
</mgrwt>
</event>
<event>
 6      1 +1.8175624e-03 5.63811000e+02 7.81860800e-03 9.98346800e-02
       -2 -1    0    0    0  501 -0.0000000000e+00 +0.0000000000e+00 +3.8866245633e+02 3.8866245634e+02 2.5500000000e-03 0.0000e+00 1.0000e+00
        2 -1    0    0  501    0 +0.0000000000e+00 -0.0000000000e+00 -2.0447232993e+02 2.0447232994e+02 2.5500000000e-03 0.0000e+00 -1.0000e+00
      -13  1    1    2    0    0 +6.8959768487e+00 -6.0672189027e+01 +2.4312129917e+02 2.5067238838e+02 1.0566000000e-01 0.0000e+00 1.0000e+00
       13  1    1    2    0    0 +7.9353906316e+00 -2.1879419530e+01 +5.5963734554e+01 6.0610479067e+01 1.0566000000e-01 0.0000e+00 1.0000e+00
      -13  1    1    2    0    0 -4.6681492162e-02 -8.6298848142e+01 -2.4258559918e+01 8.9643640395e+01 1.0566000000e-01 0.0000e+00 -1.0000e+00
       13  1    1    2    0    0 -1.4784685988e+01 +1.6885045670e+02 -9.0636347407e+01 1.9220827844e+02 1.0566000000e-01 0.0000e+00 -1.0000e+00
<mgrwt>
<rscale>  0 0.56381103E+03</rscale>
<asrwt>0</asrwt>
<pdfrwt beam="1">  1        2 0.51118083E-01 0.56381103E+03</pdfrwt>
<pdfrwt beam="2">  1       -2 0.97165613E-01 0.56381103E+03</pdfrwt>
<totfact> 0.88362614E+01</totfact>
</mgrwt>
</event>
<event>
 6      1 +1.8175624e-03 6.80555100e+02 7.81860800e-03 9.75107600e-02
        2 -1    0    0  501    0 +0.0000000000e+00 +0.0000000000e+00 +4.7431017988e+02 4.7431017989e+02 2.5500000000e-03 0.0000e+00 -1.0000e+00
       -2 -1    0    0    0  501 -0.0000000000e+00 -0.0000000000e+00 -2.4412047426e+02 2.4412047427e+02 2.5500000000e-03 0.0000e+00 1.0000e+00
      -13  1    1    2    0    0 -9.9152205946e+01 +1.5338622462e+02 -7.5492679384e+00 1.8279906033e+02 1.0566000000e-01 0.0000e+00 1.0000e+00
       13  1    1    2    0    0 -7.8040211109e+01 -9.0687323040e+01 +8.0655898837e+00 1.1991467806e+02 1.0566000000e-01 0.0000e+00 -1.0000e+00
      -13  1    1    2    0    0 -2.6645867660e+01 +4.8948246042e+00 -5.3708749852e+01 6.0154821468e+01 1.0566000000e-01 0.0000e+00 1.0000e+00
       13  1    1    2    0    0 +2.0383828471e+02 -6.7593726181e+01 +2.8338213353e+02 3.5556209430e+02 1.0566000000e-01 0.0000e+00 -1.0000e+00
<mgrwt>
<rscale>  0 0.68055514E+03</rscale>
<asrwt>0</asrwt>
<pdfrwt beam="1">  1        2 0.11857754E+00 0.68055514E+03</pdfrwt>
<pdfrwt beam="2">  1       -2 0.61030119E-01 0.68055514E+03</pdfrwt>
<totfact> 0.91961717E+01</totfact>
</mgrwt>
</event>
<event>
 6      1 +1.8175624e-03 7.36120000e+02 7.81860800e-03 9.65738100e-02
        1 -1    0    0  501    0 +0.0000000000e+00 +0.0000000000e+00 +2.9775537074e+02 2.9775537079e+02 5.0400000000e-03 0.0000e+00 1.0000e+00
       -1 -1    0    0    0  501 -0.0000000000e+00 -0.0000000000e+00 -4.5496467462e+02 4.5496467465e+02 5.0400000000e-03 0.0000e+00 -1.0000e+00
      -13  1    1    2    0    0 +1.1117802801e+02 -2.3153006112e+01 -6.1196925381e+01 1.2900267611e+02 1.0566000000e-01 0.0000e+00 -1.0000e+00
       13  1    1    2    0    0 -2.4594724520e+02 +6.1047976590e+01 -2.8464530470e+02 3.8110348138e+02 1.0566000000e-01 0.0000e+00 1.0000e+00
      -13  1    1    2    0    0 +9.5212283317e+01 -5.1165975540e+01 +1.5528683164e+02 1.8920186889e+02 1.0566000000e-01 0.0000e+00 -1.0000e+00
       13  1    1    2    0    0 +3.9556933874e+01 +1.3271005063e+01 +3.3346094568e+01 5.3412019058e+01 1.0566000000e-01 0.0000e+00 1.0000e+00
<mgrwt>
<rscale>  0 0.73612003E+03</rscale>
<asrwt>0</asrwt>
<pdfrwt beam="1">  1        1 0.74438843E-01 0.73612003E+03</pdfrwt>
<pdfrwt beam="2">  1       -1 0.11374117E+00 0.73612003E+03</pdfrwt>
<totfact> 0.33487179E+01</totfact>
</mgrwt>
</event>
<event>
 6      1 +1.8175624e-03 4.21545800e+02 7.81860800e-03 1.03656400e-01
        2 -1    0    0  501    0 +0.0000000000e+00 +0.0000000000e+00 +1.0734741350e+02 1.0734741353e+02 2.5500000000e-03 0.0000e+00 -1.0000e+00
       -2 -1    0    0    0  501 -0.0000000000e+00 -0.0000000000e+00 -4.1384526062e+02 4.1384526063e+02 2.5500000000e-03 0.0000e+00 1.0000e+00
      -13  1    1    2    0    0 -9.8814629703e+01 +3.3871275687e+01 -2.2683294169e+02 2.4972943151e+02 1.0566000000e-01 0.0000e+00 1.0000e+00
       13  1    1    2    0    0 +3.0320859148e+01 +3.5718858156e+01 -1.1986930594e+02 1.2870063324e+02 1.0566000000e-01 0.0000e+00 -1.0000e+00
      -13  1    1    2    0    0 +3.4592418369e+01 +1.7108864161e+01 -5.6275897788e+00 3.9000379130e+01 1.0566000000e-01 0.0000e+00 1.0000e+00
       13  1    1    2    0    0 +3.3901352185e+01 -8.6698998005e+01 +4.5831990288e+01 1.0376223028e+02 1.0566000000e-01 0.0000e+00 -1.0000e+00
<mgrwt>
<rscale>  0 0.42154581E+03</rscale>
<asrwt>0</asrwt>
<pdfrwt beam="1">  1        2 0.26836854E-01 0.42154581E+03</pdfrwt>
<pdfrwt beam="2">  1       -2 0.10346131E+00 0.42154581E+03</pdfrwt>
<totfact> 0.15701129E+02</totfact>
</mgrwt>
</event>
<event>
 6      1 +1.8175624e-03 4.72763700e+02 7.81860800e-03 1.02114300e-01
       -2 -1    0    0    0  501 -0.0000000000e+00 +0.0000000000e+00 +2.6825714712e+02 2.6825714713e+02 2.5500000000e-03 0.0000e+00 -1.0000e+00
        2 -1    0    0  501    0 +0.0000000000e+00 -0.0000000000e+00 -2.0829406944e+02 2.0829406945e+02 2.5500000000e-03 0.0000e+00 1.0000e+00
      -13  1    1    2    0    0 +5.2434972667e+01 +7.9104213584e+01 -2.0189057281e+01 9.7028409053e+01 1.0566000000e-01 0.0000e+00 1.0000e+00
       13  1    1    2    0    0 -1.1078668549e+00 -1.5425350540e+02 +3.4007778499e+01 1.5796174049e+02 1.0566000000e-01 0.0000e+00 -1.0000e+00
      -13  1    1    2    0    0 -7.7551135217e+00 -6.0624180061e+01 -2.0089714424e+01 6.4335377387e+01 1.0566000000e-01 0.0000e+00 1.0000e+00
       13  1    1    2    0    0 -4.3571992291e+01 +1.3577347187e+02 +6.6234070889e+01 1.5722568965e+02 1.0566000000e-01 0.0000e+00 -1.0000e+00
<mgrwt>
<rscale>  0 0.47276367E+03</rscale>
<asrwt>0</asrwt>
<pdfrwt beam="1">  1        2 0.52073517E-01 0.47276367E+03</pdfrwt>
<pdfrwt beam="2">  1       -2 0.67064287E-01 0.47276367E+03</pdfrwt>
<totfact> 0.19973224E+02</totfact>
</mgrwt>
</event>
<event>
 6      1 +1.8175624e-03 2.44510600e+02 7.81860800e-03 1.11682400e-01
       -2 -1    0    0    0  501 -0.0000000000e+00 +0.0000000000e+00 +1.5355766862e+02 1.5355766865e+02 2.5500000000e-03 0.0000e+00 1.0000e+00
        2 -1    0    0  501    0 +0.0000000000e+00 -0.0000000000e+00 -9.7333840375e+01 9.7333840408e+01 2.5500000000e-03 0.0000e+00 -1.0000e+00
      -13  1    1    2    0    0 +1.3370791164e-01 +3.1735636515e+01 +9.0720924659e+00 3.3007310229e+01 1.0566000000e-01 0.0000e+00 1.0000e+00
       13  1    1    2    0    0 +1.6531934958e+01 -3.6291420709e+01 +1.4524792836e+01 4.2442347502e+01 1.0566000000e-01 0.0000e+00 -1.0000e+00
      -13  1    1    2    0    0 +6.1323223845e+01 -4.0177086060e-01 +6.6332387276e+01 9.0336570493e+01 1.0566000000e-01 0.0000e+00 1.0000e+00
       13  1    1    2    0    0 -7.7988866715e+01 +4.9575550543e+00 -3.3705444328e+01 8.5105280829e+01 1.0566000000e-01 0.0000e+00 -1.0000e+00
<mgrwt>
<rscale>  0 0.24451059E+03</rscale>
<asrwt>0</asrwt>
<pdfrwt beam="1">  1        2 0.24333460E-01 0.24451059E+03</pdfrwt>
<pdfrwt beam="2">  1       -2 0.38389417E-01 0.24451059E+03</pdfrwt>
<totfact> 0.14245762E+03</totfact>
</mgrwt>
</event>
<event>
 6      1 +1.8175624e-03 4.32732700e+02 7.81860800e-03 1.03300000e-01
       -2 -1    0    0    0  501 -0.0000000000e+00 +0.0000000000e+00 +3.6188400803e+01 3.6188400893e+01 2.5500000000e-03 0.0000e+00 1.0000e+00
        2 -1    0    0  501    0 +0.0000000000e+00 -0.0000000000e+00 -1.2936297408e+03 1.2936297408e+03 2.5500000000e-03 0.0000e+00 -1.0000e+00
      -13  1    1    2    0    0 -2.4419840041e+01 +2.5686772560e+00 -1.1315285078e+02 1.1578646507e+02 1.0566000000e-01 0.0000e+00 -1.0000e+00
       13  1    1    2    0    0 +7.7042923581e+01 -1.5196585697e+02 -8.6494083937e+02 8.8156219323e+02 1.0566000000e-01 0.0000e+00 -1.0000e+00
      -13  1    1    2    0    0 -3.7558865103e+01 +9.9391604286e+00 -4.6047153057e+01 6.0247877362e+01 1.0566000000e-01 0.0000e+00 1.0000e+00
       13  1    1    2    0    0 -1.5064218437e+01 +1.3945801929e+02 -2.3330049675e+02 2.7222160599e+02 1.0566000000e-01 0.0000e+00 1.0000e+00
<mgrwt>
<rscale>  0 0.43273267E+03</rscale>
<asrwt>0</asrwt>
<pdfrwt beam="1">  1        2 0.32340728E+00 0.43273267E+03</pdfrwt>
<pdfrwt beam="2">  1       -2 0.90471045E-02 0.43273267E+03</pdfrwt>
<totfact> 0.49971963E+02</totfact>
</mgrwt>
</event>
<event>
 6      1 +1.8175624e-03 4.27704700e+02 7.81860800e-03 1.03458800e-01
        1 -1    0    0  501    0 +0.0000000000e+00 +0.0000000000e+00 +3.1892984698e+02 3.1892984702e+02 5.0400000000e-03 0.0000e+00 -1.0000e+00
       -1 -1    0    0    0  501 -0.0000000000e+00 -0.0000000000e+00 -1.4339459901e+02 1.4339459909e+02 5.0400000000e-03 0.0000e+00 1.0000e+00
      -13  1    1    2    0    0 -1.0300548644e+02 -3.5486299854e+01 +5.2227705565e+00 1.0907197720e+02 1.0566000000e-01 0.0000e+00 1.0000e+00
       13  1    1    2    0    0 +6.6732622279e+01 +1.3940356661e+02 +1.0364215389e+02 1.8608681975e+02 1.0566000000e-01 0.0000e+00 -1.0000e+00
      -13  1    1    2    0    0 +4.0692786563e+00 -9.2237382772e+01 +8.7392830770e+01 1.2712911485e+02 1.0566000000e-01 0.0000e+00 1.0000e+00
       13  1    1    2    0    0 +3.2203585501e+01 -1.1679883981e+01 -2.0722507244e+01 4.0036534308e+01 1.0566000000e-01 0.0000e+00 -1.0000e+00
<mgrwt>
<rscale>  0 0.42770465E+03</rscale>
<asrwt>0</asrwt>
<pdfrwt beam="1">  1        1 0.79732461E-01 0.42770465E+03</pdfrwt>
<pdfrwt beam="2">  1       -1 0.35848650E-01 0.42770465E+03</pdfrwt>
<totfact> 0.32146210E+02</totfact>
</mgrwt>
</event>
<event>
 6      1 +1.8175624e-03 3.36467400e+02 7.81860800e-03 1.06831100e-01
       -1 -1    0    0    0  501 -0.0000000000e+00 +0.0000000000e+00 +5.8818831609e+02 5.8818831611e+02 5.0400000000e-03 0.0000e+00 -1.0000e+00
        1 -1    0    0  501    0 +0.0000000000e+00 -0.0000000000e+00 -4.8118228431e+01 4.8118228695e+01 5.0400000000e-03 0.0000e+00 1.0000e+00
      -13  1    1    2    0    0 +6.0127248948e+01 -2.8716491058e+01 +2.5008304916e+01 7.1171268104e+01 1.0566000000e-01 0.0000e+00 1.0000e+00
       13  1    1    2    0    0 -6.6215361988e+00 +2.6835474453e+01 +4.2964761725e+01 5.1087859075e+01 1.0566000000e-01 0.0000e+00 -1.0000e+00
      -13  1    1    2    0    0 -4.7655484690e+01 +6.4747362066e+01 +4.3163203625e+02 4.3905522659e+02 1.0566000000e-01 0.0000e+00 -1.0000e+00
       13  1    1    2    0    0 -5.8502280594e+00 -6.2866345461e+01 +4.0464984767e+01 7.4992191035e+01 1.0566000000e-01 0.0000e+00 1.0000e+00
<mgrwt>
<rscale>  0 0.33646741E+03</rscale>
<asrwt>0</asrwt>
<pdfrwt beam="1">  1        1 0.12029557E-01 0.33646741E+03</pdfrwt>
<pdfrwt beam="2">  1       -1 0.14704708E+00 0.33646741E+03</pdfrwt>
<totfact> 0.19868911E+02</totfact>
</mgrwt>
</event>
<event>
 6      1 +1.8175624e-03 3.43151100e+02 7.81860800e-03 1.06546200e-01
        2 -1    0    0  501    0 +0.0000000000e+00 +0.0000000000e+00 +3.6132175926e+02 3.6132175927e+02 2.5500000000e-03 0.0000e+00 -1.0000e+00
       -2 -1    0    0    0  501 -0.0000000000e+00 -0.0000000000e+00 -8.1473573506e+01 8.1473573546e+01 2.5500000000e-03 0.0000e+00 1.0000e+00
      -13  1    1    2    0    0 +7.9689460623e+00 +3.5341164982e+01 +1.3576010460e+02 1.4051092203e+02 1.0566000000e-01 0.0000e+00 1.0000e+00
       13  1    1    2    0    0 -8.1580514304e+01 +1.9584201332e+01 +1.7582702514e+02 1.9481805663e+02 1.0566000000e-01 0.0000e+00 -1.0000e+00
      -13  1    1    2    0    0 +7.1030025345e+01 -3.0036198176e+01 -2.8578556513e+01 8.2244651849e+01 1.0566000000e-01 0.0000e+00 1.0000e+00
       13  1    1    2    0    0 +2.5815428974e+00 -2.4889168138e+01 -3.1603874724e+00 2.5221702309e+01 1.0566000000e-01 0.0000e+00 -1.0000e+00
<mgrwt>
<rscale>  0 0.34315113E+03</rscale>
<asrwt>0</asrwt>
<pdfrwt beam="1">  1        2 0.90330438E-01 0.34315113E+03</pdfrwt>
<pdfrwt beam="2">  1       -2 0.20368394E-01 0.34315113E+03</pdfrwt>
<totfact> 0.10562084E+03</totfact>
</mgrwt>
</event>
<event>
 6      1 +1.8175624e-03 2.59361700e+02 7.81860800e-03 1.10752700e-01
       -2 -1    0    0    0  501 -0.0000000000e+00 +0.0000000000e+00 +4.8424864208e+02 4.8424864208e+02 2.5500000000e-03 0.0000e+00 1.0000e+00
        2 -1    0    0  501    0 +0.0000000000e+00 -0.0000000000e+00 -3.4728284231e+01 3.4728284324e+01 2.5500000000e-03 0.0000e+00 -1.0000e+00
      -13  1    1    2    0    0 -2.1581438345e+01 +2.9403627500e+01 +1.6283388287e+02 1.6686885978e+02 1.0566000000e-01 0.0000e+00 1.0000e+00
       13  1    1    2    0    0 +7.1908028176e+01 -1.8256615518e+01 +5.3175664542e+01 9.1278316099e+01 1.0566000000e-01 0.0000e+00 -1.0000e+00
      -13  1    1    2    0    0 +2.0180857325e+01 +2.5632070394e+01 +1.0256013327e+02 1.0762370620e+02 1.0566000000e-01 0.0000e+00 1.0000e+00
       13  1    1    2    0    0 -7.0507447156e+01 -3.6779082375e+01 +1.3095067717e+02 1.5320604433e+02 1.0566000000e-01 0.0000e+00 -1.0000e+00
<mgrwt>
<rscale>  0 0.25936171E+03</rscale>
<asrwt>0</asrwt>
<pdfrwt beam="1">  1        2 0.86820711E-02 0.25936171E+03</pdfrwt>
<pdfrwt beam="2">  1       -2 0.12106216E+00 0.25936171E+03</pdfrwt>
<totfact> 0.41610439E+02</totfact>
</mgrwt>
</event>
<event>
 6      1 +1.8175624e-03 2.84919700e+02 7.81860800e-03 1.09303200e-01
        1 -1    0    0  501    0 +0.0000000000e+00 +0.0000000000e+00 +4.4124073229e+01 4.4124073517e+01 5.0400000000e-03 0.0000e+00 -1.0000e+00
       -1 -1    0    0    0  501 -0.0000000000e+00 -0.0000000000e+00 -4.5994880791e+02 4.5994880794e+02 5.0400000000e-03 0.0000e+00 1.0000e+00
      -13  1    1    2    0    0 +8.5843370334e+01 +4.6205126675e+00 -3.7036180124e+01 9.3606213308e+01 1.0566000000e-01 0.0000e+00 -1.0000e+00
       13  1    1    2    0    0 -7.4493777833e+01 +1.6580502354e+01 -2.0284350790e+02 2.1672502360e+02 1.0566000000e-01 0.0000e+00 -1.0000e+00
      -13  1    1    2    0    0 -3.7377209812e+00 -5.0470765465e+01 -1.0249607751e+02 1.1430977996e+02 1.0566000000e-01 0.0000e+00 1.0000e+00
       13  1    1    2    0    0 -7.6118715200e+00 +2.9269750443e+01 -7.3448969150e+01 7.9431864590e+01 1.0566000000e-01 0.0000e+00 1.0000e+00
<mgrwt>
<rscale>  0 0.28491974E+03</rscale>
<asrwt>0</asrwt>
<pdfrwt beam="1">  1        1 0.11031020E-01 0.28491974E+03</pdfrwt>
<pdfrwt beam="2">  1       -1 0.11498719E+00 0.28491974E+03</pdfrwt>
<totfact> 0.41153565E+02</totfact>
</mgrwt>
</event>
<event>
 6      1 +1.8175624e-03 2.93958900e+02 7.81860800e-03 1.08830000e-01
       -2 -1    0    0    0  501 -0.0000000000e+00 +0.0000000000e+00 +2.7390092010e+01 2.7390092129e+01 2.5500000000e-03 0.0000e+00 1.0000e+00
        2 -1    0    0  501    0 +0.0000000000e+00 -0.0000000000e+00 -7.8871424117e+02 7.8871424117e+02 2.5500000000e-03 0.0000e+00 -1.0000e+00
      -13  1    1    2    0    0 +2.4308211304e+01 +6.6096727251e+01 -3.6002191578e+02 3.6684527732e+02 1.0566000000e-01 0.0000e+00 1.0000e+00
       13  1    1    2    0    0 -1.6661001483e+01 -8.5056972106e+01 -3.7127515610e+02 3.8125782638e+02 1.0566000000e-01 0.0000e+00 -1.0000e+00
      -13  1    1    2    0    0 -2.5412164949e+01 +3.0555271180e+01 -1.8175492740e+01 4.3700828649e+01 1.0566000000e-01 0.0000e+00 1.0000e+00
       13  1    1    2    0    0 +1.7764955128e+01 -1.1595026325e+01 -1.1851584540e+01 2.4300400949e+01 1.0566000000e-01 0.0000e+00 -1.0000e+00
<mgrwt>
<rscale>  0 0.29395888E+03</rscale>
<asrwt>0</asrwt>
<pdfrwt beam="1">  1        2 0.19717849E+00 0.29395888E+03</pdfrwt>
<pdfrwt beam="2">  1       -2 0.68475256E-02 0.29395888E+03</pdfrwt>
<totfact> 0.21661000E+03</totfact>
</mgrwt>
</event>
<event>
 6      1 +1.8175624e-03 5.70628000e+02 7.81860800e-03 9.96829000e-02
       -2 -1    0    0    0  501 -0.0000000000e+00 +0.0000000000e+00 +9.7801048726e+01 9.7801048759e+01 2.5500000000e-03 0.0000e+00 -1.0000e+00
        2 -1    0    0  501    0 +0.0000000000e+00 -0.0000000000e+00 -8.3234365121e+02 8.3234365122e+02 2.5500000000e-03 0.0000e+00 1.0000e+00
      -13  1    1    2    0    0 +2.0692647946e+01 -6.4237289055e+01 -5.5721031376e+01 8.7518337997e+01 1.0566000000e-01 0.0000e+00 1.0000e+00
       13  1    1    2    0    0 +6.8942581346e+00 -1.5837351066e+01 +3.8685733640e+01 4.2366845945e+01 1.0566000000e-01 0.0000e+00 -1.0000e+00
      -13  1    1    2    0    0 +3.2787906628e+00 -8.1683380716e+01 -2.0798598670e+01 8.4353530004e+01 1.0566000000e-01 0.0000e+00 -1.0000e+00
       13  1    1    2    0    0 -3.0865696743e+01 +1.6175802084e+02 -6.9670870608e+02 7.1590598603e+02 1.0566000000e-01 0.0000e+00 1.0000e+00
<mgrwt>
<rscale>  0 0.57062801E+03</rscale>
<asrwt>0</asrwt>
<pdfrwt beam="1">  1        2 0.20808589E+00 0.57062801E+03</pdfrwt>
<pdfrwt beam="2">  1       -2 0.24450265E-01 0.57062801E+03</pdfrwt>
<totfact> 0.23596683E+02</totfact>
</mgrwt>
</event>
<event>
 6      1 +1.8175624e-03 1.93443000e+02 7.81860800e-03 1.15539200e-01
       -1 -1    0    0    0  501 -0.0000000000e+00 +0.0000000000e+00 +4.7983291918e+01 4.7983292182e+01 5.0400000000e-03 0.0000e+00 1.0000e+00
        1 -1    0    0  501    0 +0.0000000000e+00 -0.0000000000e+00 -1.9496469982e+02 1.9496469988e+02 5.0400000000e-03 0.0000e+00 -1.0000e+00
      -13  1    1    2    0    0 +1.8463330695e+01 +1.3441119581e+01 -1.1220579238e+02 1.1450637224e+02 1.0566000000e-01 0.0000e+00 1.0000e+00
       13  1    1    2    0    0 +2.4854701008e+01 +3.1370113144e+01 -4.3676081953e+01 5.9240623390e+01 1.0566000000e-01 0.0000e+00 -1.0000e+00
      -13  1    1    2    0    0 -4.1735044663e+01 -2.5005212227e+01 +8.0430475951e+00 4.9313044625e+01 1.0566000000e-01 0.0000e+00 1.0000e+00
       13  1    1    2    0    0 -1.5829870403e+00 -1.9806020498e+01 +8.5741884098e-01 1.9887951806e+01 1.0566000000e-01 0.0000e+00 -1.0000e+00
<mgrwt>
<rscale>  0 0.19344300E+03</rscale>
<asrwt>0</asrwt>
<pdfrwt beam="1">  1        1 0.48741173E-01 0.19344300E+03</pdfrwt>
<pdfrwt beam="2">  1       -1 0.11995824E-01 0.19344300E+03</pdfrwt>
<totfact> 0.36774674E+03</totfact>
</mgrwt>
</event>
<event>
 6      1 +1.8175624e-03 5.93789700e+02 7.81860800e-03 9.91837500e-02
        2 -1    0    0  501    0 +0.0000000000e+00 +0.0000000000e+00 +5.4207897220e+02 5.4207897220e+02 2.5500000000e-03 0.0000e+00 -1.0000e+00
       -2 -1    0    0    0  501 -0.0000000000e+00 -0.0000000000e+00 -1.6260832317e+02 1.6260832319e+02 2.5500000000e-03 0.0000e+00 1.0000e+00
      -13  1    1    2    0    0 -6.8144795886e+01 -1.1629813723e+02 -1.0596824932e+02 1.7145918160e+02 1.0566000000e-01 0.0000e+00 1.0000e+00
       13  1    1    2    0    0 -4.1474400912e+01 -4.4277616575e+00 +6.7801043843e+01 7.9603540841e+01 1.0566000000e-01 0.0000e+00 -1.0000e+00
      -13  1    1    2    0    0 +5.6422411370e+01 +2.4480053118e+01 +9.9055920575e+01 1.1659694709e+02 1.0566000000e-01 0.0000e+00 1.0000e+00
       13  1    1    2    0    0 +5.3196785427e+01 +9.6245845770e+01 +3.1858193392e+02 3.3702762586e+02 1.0566000000e-01 0.0000e+00 -1.0000e+00
<mgrwt>
<rscale>  0 0.59378970E+03</rscale>
<asrwt>0</asrwt>
<pdfrwt beam="1">  1        2 0.13551974E+00 0.59378970E+03</pdfrwt>
<pdfrwt beam="2">  1       -2 0.40652081E-01 0.59378970E+03</pdfrwt>
<totfact> 0.17667479E+02</totfact>
</mgrwt>
</event>
<event>
 6      1 +1.8175624e-03 3.88654600e+02 7.81860800e-03 1.04778100e-01
        4 -1    0    0  501    0 +0.0000000000e+00 +0.0000000000e+00 +9.3655106573e+01 9.3663717026e+01 1.2700000000e+00 0.0000e+00 1.0000e+00
       -4 -1    0    0    0  501 -0.0000000000e+00 -0.0000000000e+00 -4.0318637523e+02 4.0318837541e+02 1.2700000000e+00 0.0000e+00 -1.0000e+00
      -13  1    1    2    0    0 +3.4853604706e+01 +1.0975798734e+02 -1.5936853423e+02 1.9662128677e+02 1.0566000000e-01 0.0000e+00 -1.0000e+00
       13  1    1    2    0    0 +3.6479696788e+01 -1.5106694258e+02 -1.1791527145e+02 1.9507950129e+02 1.0566000000e-01 0.0000e+00 1.0000e+00
      -13  1    1    2    0    0 -4.5199756644e+01 -6.1322926783e+00 -1.0648561782e+01 4.6840431747e+01 1.0566000000e-01 0.0000e+00 -1.0000e+00
       13  1    1    2    0    0 -2.6133544850e+01 +4.7441247919e+01 -2.1598901189e+01 5.8310872632e+01 1.0566000000e-01 0.0000e+00 1.0000e+00
<mgrwt>
<rscale>  0 0.38865460E+03</rscale>
<asrwt>0</asrwt>
<pdfrwt beam="1">  1        4 0.23415104E-01 0.38865460E+03</pdfrwt>
<pdfrwt beam="2">  1       -4 0.10079792E+00 0.38865460E+03</pdfrwt>
<totfact> 0.26754377E+01</totfact>
</mgrwt>
</event>
<event>
 6      1 +1.8175624e-03 5.38123400e+02 7.81860800e-03 1.00428100e-01
        2 -1    0    0  501    0 +0.0000000000e+00 +0.0000000000e+00 +1.0605307535e+02 1.0605307538e+02 2.5500000000e-03 0.0000e+00 1.0000e+00
       -2 -1    0    0    0  501 -0.0000000000e+00 -0.0000000000e+00 -6.8262242143e+02 6.8262242143e+02 2.5500000000e-03 0.0000e+00 -1.0000e+00
      -13  1    1    2    0    0 -5.0869660728e+01 +1.1681786583e+02 -8.8814801618e+01 1.5531328440e+02 1.0566000000e-01 0.0000e+00 1.0000e+00
       13  1    1    2    0    0 +7.0693309763e+00 +2.9966883213e+01 -1.0901266326e+02 1.1327736511e+02 1.0566000000e-01 0.0000e+00 -1.0000e+00
      -13  1    1    2    0    0 +3.6105153806e+01 -1.9509887378e+02 -4.1446403978e+02 4.5950800223e+02 1.0566000000e-01 0.0000e+00 -1.0000e+00
       13  1    1    2    0    0 +7.6951759459e+00 +4.8314124730e+01 +3.5722158581e+01 6.0576845073e+01 1.0566000000e-01 0.0000e+00 1.0000e+00
<mgrwt>
<rscale>  0 0.53812343E+03</rscale>
<asrwt>0</asrwt>
<pdfrwt beam="1">  1        2 0.26513271E-01 0.53812343E+03</pdfrwt>
<pdfrwt beam="2">  1       -2 0.17065559E+00 0.53812343E+03</pdfrwt>
<totfact> 0.44366011E+01</totfact>
</mgrwt>
</event>
<event>
 6      1 +1.8175624e-03 1.72405600e+02 7.81860800e-03 1.17536200e-01
        1 -1    0    0  501    0 +0.0000000000e+00 +0.0000000000e+00 +4.4313229614e+02 4.4313229617e+02 5.0400000000e-03 0.0000e+00 -1.0000e+00
       -1 -1    0    0    0  501 -0.0000000000e+00 -0.0000000000e+00 -1.6769082602e+01 1.6769083360e+01 5.0400000000e-03 0.0000e+00 1.0000e+00
      -13  1    1    2    0    0 +1.1139757674e+01 -9.7284524893e+00 +8.9127759976e+00 1.7268055156e+01 1.0566000000e-01 0.0000e+00 1.0000e+00
       13  1    1    2    0    0 +3.0557580727e+01 +1.4463466585e+01 +1.5996192327e+02 1.6349552185e+02 1.0566000000e-01 0.0000e+00 -1.0000e+00
      -13  1    1    2    0    0 -1.0801475336e+00 +4.4083064819e+01 +9.7608670137e+01 1.0710717517e+02 1.0566000000e-01 0.0000e+00 -1.0000e+00
       13  1    1    2    0    0 -4.0617190867e+01 -4.8818078915e+01 +1.5987984413e+02 1.7203062735e+02 1.0566000000e-01 0.0000e+00 1.0000e+00
<mgrwt>
<rscale>  0 0.17240559E+03</rscale>
<asrwt>0</asrwt>
<pdfrwt beam="1">  1        1 0.11078307E+00 0.17240559E+03</pdfrwt>
<pdfrwt beam="2">  1       -1 0.41922710E-02 0.17240559E+03</pdfrwt>
<totfact> 0.60624382E+03</totfact>
</mgrwt>
</event>
<event>
 6      1 +1.8175624e-03 4.77899100e+02 7.81860800e-03 1.01971400e-01
        1 -1    0    0  501    0 +0.0000000000e+00 +0.0000000000e+00 +1.5461075721e+02 1.5461075729e+02 5.0400000000e-03 0.0000e+00 -1.0000e+00
       -1 -1    0    0    0  501 -0.0000000000e+00 -0.0000000000e+00 -3.6929432780e+02 3.6929432783e+02 5.0400000000e-03 0.0000e+00 1.0000e+00
      -13  1    1    2    0    0 +1.3949415074e+02 +1.1296085634e+02 +2.4170980386e+01 1.8111604184e+02 1.0566000000e-01 0.0000e+00 -1.0000e+00
       13  1    1    2    0    0 -2.6521157878e+01 -5.4970050737e+01 +3.3702031087e-01 6.1034441424e+01 1.0566000000e-01 0.0000e+00 1.0000e+00
      -13  1    1    2    0    0 -3.7254266506e+01 -6.1797116597e+01 -1.3242486250e+02 1.5080822048e+02 1.0566000000e-01 0.0000e+00 -1.0000e+00
       13  1    1    2    0    0 -7.5718726358e+01 +3.8063109928e+00 -1.0676670879e+02 1.3094638137e+02 1.0566000000e-01 0.0000e+00 1.0000e+00
<mgrwt>
<rscale>  0 0.47789905E+03</rscale>
<asrwt>0</asrwt>
<pdfrwt beam="1">  1        1 0.38652690E-01 0.47789905E+03</pdfrwt>
<pdfrwt beam="2">  1       -1 0.92323580E-01 0.47789905E+03</pdfrwt>
<totfact> 0.13028078E+02</totfact>
</mgrwt>
</event>
<event>
 6      1 +1.8175624e-03 4.10650100e+02 7.81860800e-03 1.04015300e-01
        2 -1    0    0  501    0 +0.0000000000e+00 +0.0000000000e+00 +1.0815846638e+02 1.0815846641e+02 2.5500000000e-03 0.0000e+00 -1.0000e+00
       -2 -1    0    0    0  501 -0.0000000000e+00 -0.0000000000e+00 -3.8978345227e+02 3.8978345228e+02 2.5500000000e-03 0.0000e+00 1.0000e+00
      -13  1    1    2    0    0 +1.5379577145e+01 +6.5573930738e+01 -1.0173245115e+02 1.2200809222e+02 1.0566000000e-01 0.0000e+00 1.0000e+00
       13  1    1    2    0    0 -1.3934364347e+02 +3.4092363269e+01 -6.6799116667e+01 1.5824371508e+02 1.0566000000e-01 0.0000e+00 -1.0000e+00
      -13  1    1    2    0    0 +9.3844925122e+01 -2.8299840845e+01 -2.6566754743e+01 1.0155567234e+02 1.0566000000e-01 0.0000e+00 1.0000e+00
       13  1    1    2    0    0 +3.0119141205e+01 -7.1366453162e+01 -8.6526663334e+01 1.1613443906e+02 1.0566000000e-01 0.0000e+00 -1.0000e+00
<mgrwt>
<rscale>  0 0.41065012E+03</rscale>
<asrwt>0</asrwt>
<pdfrwt beam="1">  1        2 0.27039618E-01 0.41065012E+03</pdfrwt>
<pdfrwt beam="2">  1       -2 0.97445860E-01 0.41065012E+03</pdfrwt>
<totfact> 0.17931287E+02</totfact>
</mgrwt>
</event>
<event>
 6      1 +1.8175624e-03 1.70974000e+02 7.81860800e-03 1.17683600e-01
       -2 -1    0    0    0  501 -0.0000000000e+00 +0.0000000000e+00 +1.0910621379e+02 1.0910621382e+02 2.5500000000e-03 0.0000e+00 1.0000e+00
        2 -1    0    0  501    0 +0.0000000000e+00 -0.0000000000e+00 -6.6980845420e+01 6.6980845468e+01 2.5500000000e-03 0.0000e+00 -1.0000e+00
      -13  1    1    2    0    0 +1.9428815336e+01 +2.5510101923e+01 -1.7482860632e+01 3.6522674401e+01 1.0566000000e-01 0.0000e+00 1.0000e+00
       13  1    1    2    0    0 +7.5540192372e+00 -1.5861824466e+01 -3.7384397599e+00 1.7962399002e+01 1.0566000000e-01 0.0000e+00 -1.0000e+00
      -13  1    1    2    0    0 -2.1013621492e+01 -4.3549644674e+01 -1.2887525665e+00 4.8371643415e+01 1.0566000000e-01 0.0000e+00 -1.0000e+00
       13  1    1    2    0    0 -5.9692130812e+00 +3.3901367217e+01 +6.4635421328e+01 7.3230342470e+01 1.0566000000e-01 0.0000e+00 1.0000e+00
<mgrwt>
<rscale>  0 0.17097399E+03</rscale>
<asrwt>0</asrwt>
<pdfrwt beam="1">  1        2 0.16745212E-01 0.17097399E+03</pdfrwt>
<pdfrwt beam="2">  1       -2 0.27276553E-01 0.17097399E+03</pdfrwt>
<totfact> 0.40332884E+03</totfact>
</mgrwt>
</event>
<event>
 6      1 +1.8175624e-03 3.22618100e+02 7.81860800e-03 1.07445100e-01
       -2 -1    0    0    0  501 -0.0000000000e+00 +0.0000000000e+00 +9.5126110396e+01 9.5126110430e+01 2.5500000000e-03 0.0000e+00 1.0000e+00
        2 -1    0    0  501    0 +0.0000000000e+00 -0.0000000000e+00 -2.7353799940e+02 2.7353799941e+02 2.5500000000e-03 0.0000e+00 -1.0000e+00
      -13  1    1    2    0    0 +3.4205288490e+01 -4.3771534461e+01 +2.2163329126e+00 5.5595613904e+01 1.0566000000e-01 0.0000e+00 1.0000e+00
       13  1    1    2    0    0 +3.2233366715e+01 +3.6470133766e+01 -3.8107596287e+01 6.1816346103e+01 1.0566000000e-01 0.0000e+00 -1.0000e+00
      -13  1    1    2    0    0 +3.9315775240e+01 +5.2802420955e+01 +2.7548323048e+00 6.5889499213e+01 1.0566000000e-01 0.0000e+00 1.0000e+00
       13  1    1    2    0    0 -1.0575443045e+02 -4.5501020260e+01 -1.4527545794e+02 1.8536265062e+02 1.0566000000e-01 0.0000e+00 -1.0000e+00
<mgrwt>
<rscale>  0 0.32261808E+03</rscale>
<asrwt>0</asrwt>
<pdfrwt beam="1">  1        2 0.68384498E-01 0.32261808E+03</pdfrwt>
<pdfrwt beam="2">  1       -2 0.23781528E-01 0.32261808E+03</pdfrwt>
<totfact> 0.11060171E+03</totfact>
</mgrwt>
</event>
<event>
 6      1 +1.8175624e-03 2.37748200e+02 7.81860800e-03 1.12130200e-01
        2 -1    0    0  501    0 +0.0000000000e+00 +0.0000000000e+00 +2.1300498624e+02 2.1300498626e+02 2.5500000000e-03 0.0000e+00 -1.0000e+00
       -2 -1    0    0    0  501 -0.0000000000e+00 -0.0000000000e+00 -6.6341423485e+01 6.6341423534e+01 2.5500000000e-03 0.0000e+00 1.0000e+00
      -13  1    1    2    0    0 +3.1929723277e+01 +1.9998749511e+01 -1.7569613240e+01 4.1571140037e+01 1.0566000000e-01 0.0000e+00 1.0000e+00
       13  1    1    2    0    0 +2.8006414754e+01 -3.7691405763e+01 +5.4056577058e+01 7.1603952565e+01 1.0566000000e-01 0.0000e+00 -1.0000e+00
      -13  1    1    2    0    0 -9.0638621747e+01 +2.2072502289e+01 +8.5435178603e+01 1.2649796843e+02 1.0566000000e-01 0.0000e+00 -1.0000e+00
       13  1    1    2    0    0 +3.0702483716e+01 -4.3798460365e+00 +2.4741420336e+01 3.9673348761e+01 1.0566000000e-01 0.0000e+00 1.0000e+00
<mgrwt>
<rscale>  0 0.23774822E+03</rscale>
<asrwt>0</asrwt>
<pdfrwt beam="1">  1        2 0.53251246E-01 0.23774822E+03</pdfrwt>
<pdfrwt beam="2">  1       -2 0.16585356E-01 0.23774822E+03</pdfrwt>
<totfact> 0.26851797E+03</totfact>
</mgrwt>
</event>
<event>
 6      1 +1.8175624e-03 3.07859300e+02 7.81860800e-03 1.08137700e-01
       -2 -1    0    0    0  501 -0.0000000000e+00 +0.0000000000e+00 +2.1397256148e+01 2.1397256300e+01 2.5500000000e-03 0.0000e+00 -1.0000e+00
        2 -1    0    0  501    0 +0.0000000000e+00 -0.0000000000e+00 -1.1073540156e+03 1.1073540156e+03 2.5500000000e-03 0.0000e+00 1.0000e+00
      -13  1    1    2    0    0 +2.4148368780e+01 +2.8003425676e+01 -4.4038778420e+01 5.7504440986e+01 1.0566000000e-01 0.0000e+00 -1.0000e+00
       13  1    1    2    0    0 -5.4711048914e+01 +5.5004759206e+01 -3.3611527835e+02 3.4495262561e+02 1.0566000000e-01 0.0000e+00 1.0000e+00
      -13  1    1    2    0    0 -5.3468043953e+01 -2.3860073331e+01 -1.4904889941e+02 1.6013656797e+02 1.0566000000e-01 0.0000e+00 1.0000e+00
       13  1    1    2    0    0 +8.4030724087e+01 -5.9148111551e+01 -5.5675380331e+02 5.6615763737e+02 1.0566000000e-01 0.0000e+00 -1.0000e+00
<mgrwt>
<rscale>  0 0.30785930E+03</rscale>
<asrwt>0</asrwt>
<pdfrwt beam="1">  1        2 0.27683831E+00 0.30785930E+03</pdfrwt>
<pdfrwt beam="2">  1       -2 0.53493178E-02 0.30785930E+03</pdfrwt>
<totfact> 0.16683860E+03</totfact>
</mgrwt>
</event>
<event>
 6      1 +1.8175624e-03 5.66869600e+02 7.81860800e-03 9.97663000e-02
        1 -1    0    0  501    0 +0.0000000000e+00 +0.0000000000e+00 +7.9249343559e+02 7.9249343561e+02 5.0400000000e-03 0.0000e+00 -1.0000e+00
       -1 -1    0    0    0  501 -0.0000000000e+00 -0.0000000000e+00 -1.0137027444e+02 1.0137027457e+02 5.0400000000e-03 0.0000e+00 1.0000e+00
      -13  1    1    2    0    0 +1.5911129664e+02 +1.8058753457e+02 +2.3979273264e+02 3.3974818344e+02 1.0566000000e-01 0.0000e+00 -1.0000e+00
       13  1    1    2    0    0 +3.1572894689e+01 -7.0668196839e+01 +6.2885906047e+01 9.9727077902e+01 1.0566000000e-01 0.0000e+00 1.0000e+00
      -13  1    1    2    0    0 -6.8513240944e+01 -2.1048641337e+01 +6.2349907997e+01 9.4998061444e+01 1.0566000000e-01 0.0000e+00 -1.0000e+00
       13  1    1    2    0    0 -1.2217095039e+02 -8.8870696392e+01 +3.2609461447e+02 3.5939038739e+02 1.0566000000e-01 0.0000e+00 1.0000e+00
<mgrwt>
<rscale>  0 0.56686957E+03</rscale>
<asrwt>0</asrwt>
<pdfrwt beam="1">  1        1 0.19812336E+00 0.56686957E+03</pdfrwt>
<pdfrwt beam="2">  1       -1 0.25342569E-01 0.56686957E+03</pdfrwt>
<totfact> 0.13083602E+02</totfact>
</mgrwt>
</event>
<event>
 6      1 +1.8175624e-03 1.16595200e+02 7.81860800e-03 1.24882200e-01
       -4 -1    0    0    0  501 -0.0000000000e+00 +0.0000000000e+00 +8.3961615162e+01 8.3971219597e+01 1.2700000000e+00 0.0000e+00 1.0000e+00
        4 -1    0    0  501    0 +0.0000000000e+00 -0.0000000000e+00 -4.0456229217e+01 4.0476158198e+01 1.2700000000e+00 0.0000e+00 -1.0000e+00
      -13  1    1    2    0    0 -2.8880619336e+01 +1.8830478028e+01 +4.4972784632e+01 5.6667800359e+01 1.0566000000e-01 0.0000e+00 1.0000e+00
       13  1    1    2    0    0 +9.7905627625e+00 +8.3881362900e+00 +3.7498795747e+00 1.3427163159e+01 1.0566000000e-01 0.0000e+00 -1.0000e+00
      -13  1    1    2    0    0 +3.1170638697e+01 -2.4747566368e+01 +2.3755214940e+00 3.9871105130e+01 1.0566000000e-01 0.0000e+00 -1.0000e+00
       13  1    1    2    0    0 -1.2080582124e+01 -2.4710479505e+00 -7.5927997555e+00 1.4481309146e+01 1.0566000000e-01 0.0000e+00 1.0000e+00
<mgrwt>
<rscale>  0 0.11659516E+03</rscale>
<asrwt>0</asrwt>
<pdfrwt beam="1">  1        4 0.10117749E-01 0.11659516E+03</pdfrwt>
<pdfrwt beam="2">  1       -4 0.20994095E-01 0.11659516E+03</pdfrwt>
<totfact> 0.24323095E+03</totfact>
</mgrwt>
</event>
<event>
 6      1 +1.8175624e-03 5.78483000e+02 7.81860800e-03 9.95108100e-02
       -1 -1    0    0    0  501 -0.0000000000e+00 +0.0000000000e+00 +1.9311625588e+02 1.9311625594e+02 5.0400000000e-03 0.0000e+00 1.0000e+00
        1 -1    0    0  501    0 +0.0000000000e+00 -0.0000000000e+00 -4.3321386661e+02 4.3321386664e+02 5.0400000000e-03 0.0000e+00 -1.0000e+00
      -13  1    1    2    0    0 -5.4674528854e+01 +1.1500832845e+02 +9.0926485742e+01 1.5647318202e+02 1.0566000000e-01 0.0000e+00 1.0000e+00
       13  1    1    2    0    0 -7.7177775312e+00 -5.9079273719e+01 -3.2687753724e+01 6.7958995584e+01 1.0566000000e-01 0.0000e+00 -1.0000e+00
      -13  1    1    2    0    0 +3.6746602674e+01 +1.2623408842e+01 +3.9982746537e+01 5.5752080173e+01 1.0566000000e-01 0.0000e+00 1.0000e+00
       13  1    1    2    0    0 +2.5645703711e+01 -6.8552463575e+01 -3.3831908929e+02 3.4614586480e+02 1.0566000000e-01 0.0000e+00 -1.0000e+00
<mgrwt>
<rscale>  0 0.57848298E+03</rscale>
<asrwt>0</asrwt>
<pdfrwt beam="1">  1        1 0.10830346E+00 0.57848298E+03</pdfrwt>
<pdfrwt beam="2">  1       -1 0.48279065E-01 0.57848298E+03</pdfrwt>
<totfact> 0.11944779E+02</totfact>
</mgrwt>
</event>
<event>
 6      1 +1.8175624e-03 1.30761000e+03 7.81860800e-03 9.02355200e-02
       -2 -1    0    0    0  501 -0.0000000000e+00 +0.0000000000e+00 +6.6893754734e+02 6.6893754734e+02 2.5500000000e-03 0.0000e+00 1.0000e+00
        2 -1    0    0  501    0 +0.0000000000e+00 -0.0000000000e+00 -6.3901480274e+02 6.3901480275e+02 2.5500000000e-03 0.0000e+00 -1.0000e+00
      -13  1    1    2    0    0 +2.4874047168e+02 +2.2996587327e+02 +5.2577109827e+02 6.2545294312e+02 1.0566000000e-01 0.0000e+00 1.0000e+00
       13  1    1    2    0    0 -2.8790965425e+02 -2.1317192318e+02 -4.1909073822e+02 5.5133591926e+02 1.0566000000e-01 0.0000e+00 -1.0000e+00
      -13  1    1    2    0    0 +2.5375832530e+01 -5.6880210396e+01 -3.4032883478e+01 7.0975626332e+01 1.0566000000e-01 0.0000e+00 -1.0000e+00
       13  1    1    2    0    0 +1.3793350034e+01 +4.0086260299e+01 -4.2724731975e+01 6.0187861370e+01 1.0566000000e-01 0.0000e+00 1.0000e+00
<mgrwt>
<rscale>  0 0.13076100E+04</rscale>
<asrwt>0</asrwt>
<pdfrwt beam="1">  1        2 0.15975370E+00 0.13076100E+04</pdfrwt>
<pdfrwt beam="2">  1       -2 0.16723439E+00 0.13076100E+04</pdfrwt>
<totfact> 0.51235843E+00</totfact>
</mgrwt>
</event>
<event>
 6      1 +1.8175624e-03 3.40620400e+02 7.81860800e-03 1.06653200e-01
        1 -1    0    0  501    0 +0.0000000000e+00 +0.0000000000e+00 +1.7409083137e+02 1.7409083144e+02 5.0400000000e-03 0.0000e+00 -1.0000e+00
       -1 -1    0    0    0  501 -0.0000000000e+00 -0.0000000000e+00 -1.6661167747e+02 1.6661167755e+02 5.0400000000e-03 0.0000e+00 1.0000e+00
      -13  1    1    2    0    0 +1.0224866941e+02 -6.7822175629e+00 +7.0353958191e+01 1.2429995764e+02 1.0566000000e-01 0.0000e+00 -1.0000e+00
       13  1    1    2    0    0 -4.6686414692e+01 +2.2947875180e+01 -1.5131379871e+01 5.4177450226e+01 1.0566000000e-01 0.0000e+00 -1.0000e+00
      -13  1    1    2    0    0 -2.8471119109e+01 -7.8623007235e+01 -4.2877377493e+01 9.3971605045e+01 1.0566000000e-01 0.0000e+00 1.0000e+00
       13  1    1    2    0    0 -2.7091135613e+01 +6.2457349618e+01 -4.8660469285e+00 6.8253496078e+01 1.0566000000e-01 0.0000e+00 1.0000e+00
<mgrwt>
<rscale>  0 0.34062041E+03</rscale>
<asrwt>0</asrwt>
<pdfrwt beam="1">  1        1 0.43522708E-01 0.34062041E+03</pdfrwt>
<pdfrwt beam="2">  1       -1 0.41652919E-01 0.34062041E+03</pdfrwt>
<totfact> 0.54338309E+02</totfact>
</mgrwt>
</event>
<event>
 6      1 +1.8175624e-03 1.64095800e+02 7.81860800e-03 1.18414900e-01
       -1 -1    0    0    0  501 -0.0000000000e+00 +0.0000000000e+00 +3.7528126266e+01 3.7528126605e+01 5.0400000000e-03 0.0000e+00 1.0000e+00
        1 -1    0    0  501    0 +0.0000000000e+00 -0.0000000000e+00 -1.7938176972e+02 1.7938176979e+02 5.0400000000e-03 0.0000e+00 -1.0000e+00
      -13  1    1    2    0    0 +8.5578579000e+00 +2.3142239642e+01 -1.0663736893e+01 2.6879855580e+01 1.0566000000e-01 0.0000e+00 1.0000e+00
       13  1    1    2    0    0 +7.1551073225e+00 -5.6383979398e+01 -7.0298619978e+01 9.0400530023e+01 1.0566000000e-01 0.0000e+00 -1.0000e+00
      -13  1    1    2    0    0 -4.2318238872e+01 +1.0069269239e+01 -3.5766802101e+01 5.6316061837e+01 1.0566000000e-01 0.0000e+00 1.0000e+00
       13  1    1    2    0    0 +2.6605273650e+01 +2.3172470518e+01 -2.5124484481e+01 4.3313448955e+01 1.0566000000e-01 0.0000e+00 -1.0000e+00
<mgrwt>
<rscale>  0 0.16409585E+03</rscale>
<asrwt>0</asrwt>
<pdfrwt beam="1">  1        1 0.44845440E-01 0.16409585E+03</pdfrwt>
<pdfrwt beam="2">  1       -1 0.93820321E-02 0.16409585E+03</pdfrwt>
<totfact> 0.59122641E+03</totfact>
</mgrwt>
</event>
<event>
 6      1 +1.8175624e-03 1.98523600e+02 7.81860800e-03 1.15099100e-01
       -2 -1    0    0    0  501 -0.0000000000e+00 +0.0000000000e+00 +7.5932733404e+01 7.5932733447e+01 2.5500000000e-03 0.0000e+00 1.0000e+00
        2 -1    0    0  501    0 +0.0000000000e+00 -0.0000000000e+00 -1.2975834463e+02 1.2975834465e+02 2.5500000000e-03 0.0000e+00 -1.0000e+00
      -13  1    1    2    0    0 +1.0532517167e+01 -4.2382770013e+01 +2.5049445026e+01 5.0345992611e+01 1.0566000000e-01 0.0000e+00 -1.0000e+00
       13  1    1    2    0    0 -4.1421311387e+00 +2.2450157982e+01 -3.5894290558e+01 4.2539136128e+01 1.0566000000e-01 0.0000e+00 1.0000e+00
      -13  1    1    2    0    0 -2.0596960672e+00 +3.1694868795e+01 +2.7014905748e+01 4.1696802665e+01 1.0566000000e-01 0.0000e+00 1.0000e+00
       13  1    1    2    0    0 -4.3306899609e+00 -1.1762256764e+01 -6.9995671441e+01 7.1109146699e+01 1.0566000000e-01 0.0000e+00 -1.0000e+00
<mgrwt>
<rscale>  0 0.19852361E+03</rscale>
<asrwt>0</asrwt>
<pdfrwt beam="1">  1        2 0.32439586E-01 0.19852361E+03</pdfrwt>
<pdfrwt beam="2">  1       -2 0.18983184E-01 0.19852361E+03</pdfrwt>
<totfact> 0.36281233E+03</totfact>
</mgrwt>
</event>
<event>
 6      1 +1.8175624e-03 8.48581800e+02 7.81860800e-03 9.49224200e-02
       -2 -1    0    0    0  501 -0.0000000000e+00 +0.0000000000e+00 +2.5075290366e+02 2.5075290368e+02 2.5500000000e-03 0.0000e+00 1.0000e+00
        2 -1    0    0  501    0 +0.0000000000e+00 -0.0000000000e+00 -7.1792892353e+02 7.1792892354e+02 2.5500000000e-03 0.0000e+00 -1.0000e+00
      -13  1    1    2    0    0 -1.2451866589e+02 +9.3573534716e+00 -2.6483023677e+01 1.2764724801e+02 1.0566000000e-01 0.0000e+00 -1.0000e+00
       13  1    1    2    0    0 -1.0275511900e+02 +1.0459058844e+02 +9.6060427931e+00 1.4693567604e+02 1.0566000000e-01 0.0000e+00 1.0000e+00
      -13  1    1    2    0    0 +2.9483349058e+02 -1.6739490807e+02 -1.3113964740e+02 3.6351817107e+02 1.0566000000e-01 0.0000e+00 1.0000e+00
       13  1    1    2    0    0 -6.7559705690e+01 +5.3446966157e+01 -3.1915939158e+02 3.3058073208e+02 1.0566000000e-01 0.0000e+00 -1.0000e+00
<mgrwt>
<rscale>  0 0.84858179E+03</rscale>
<asrwt>0</asrwt>
<pdfrwt beam="1">  1        2 0.17948223E+00 0.84858179E+03</pdfrwt>
<pdfrwt beam="2">  1       -2 0.62688227E-01 0.84858179E+03</pdfrwt>
<totfact> 0.47206126E+01</totfact>
</mgrwt>
</event>
<event>
 6      1 +1.8175624e-03 2.84991100e+02 7.81860800e-03 1.09299400e-01
        2 -1    0    0  501    0 +0.0000000000e+00 +0.0000000000e+00 +3.4119982754e+02 3.4119982755e+02 2.5500000000e-03 0.0000e+00 -1.0000e+00
       -2 -1    0    0    0  501 -0.0000000000e+00 -0.0000000000e+00 -5.9510542967e+01 5.9510543021e+01 2.5500000000e-03 0.0000e+00 1.0000e+00
      -13  1    1    2    0    0 -2.0457868751e+01 +4.4019655482e+01 +3.6787003966e+01 6.0906069381e+01 1.0566000000e-01 0.0000e+00 -1.0000e+00
       13  1    1    2    0    0 +6.4463334780e+01 +4.6021732347e+01 +1.7368256982e+02 1.9089045969e+02 1.0566000000e-01 0.0000e+00 -1.0000e+00
      -13  1    1    2    0    0 -5.6913213723e+01 -2.7103299969e+01 +1.8195680860e+01 6.5610949783e+01 1.0566000000e-01 0.0000e+00 1.0000e+00
       13  1    1    2    0    0 +1.2907747695e+01 -6.2938087859e+01 +5.3024029930e+01 8.3302891715e+01 1.0566000000e-01 0.0000e+00 1.0000e+00
<mgrwt>
<rscale>  0 0.28499114E+03</rscale>
<asrwt>0</asrwt>
<pdfrwt beam="1">  1        2 0.85299954E-01 0.28499114E+03</pdfrwt>
<pdfrwt beam="2">  1       -2 0.14877636E-01 0.28499114E+03</pdfrwt>
<totfact> 0.19184442E+03</totfact>
</mgrwt>
</event>
<event>
 7      1 +1.8175624e-03 9.36040500e+01 7.81860800e-03 1.29435100e-01
        2 -1    0    0  501    0 +0.0000000000e+00 +0.0000000000e+00 +1.2511711246e+01 1.2511711506e+01 2.5500000000e-03 0.0000e+00 -1.0000e+00
       -2 -1    0    0    0  501 -0.0000000000e+00 -0.0000000000e+00 -1.7507034072e+02 1.7507034074e+02 2.5500000000e-03 0.0000e+00 1.0000e+00
       23  2    1    2    0    0 +0.0000000000e+00 +0.0000000000e+00 -1.6255862947e+02 1.8758205225e+02 9.3604050703e+01 0.0000e+00 0.0000e+00
      -13  1    3    3    0    0 -1.7165035949e+01 +2.1512518698e+01 -8.8444662957e+01 9.2627730672e+01 1.0566000000e-01 0.0000e+00 1.0000e+00
       13  1    3    3    0    0 +1.0954673923e+01 -1.5499579179e+01 -1.9046333383e+01 2.6888953399e+01 1.0566000000e-01 0.0000e+00 -1.0000e+00
      -13  1    3    3    0    0 +1.3989343608e+01 +1.2605414392e+01 -1.9086494833e+01 2.6812378776e+01 1.0566000000e-01 0.0000e+00 1.0000e+00
       13  1    3    3    0    0 -7.7789815826e+00 -1.8618353910e+01 -3.5981138302e+01 4.1252989399e+01 1.0566000000e-01 0.0000e+00 -1.0000e+00
<mgrwt>
<rscale>  0 0.93604051E+02</rscale>
<asrwt>0</asrwt>
<pdfrwt beam="1">  1        2 0.31279284E-02 0.93604051E+02</pdfrwt>
<pdfrwt beam="2">  1       -2 0.43767577E-01 0.93604051E+02</pdfrwt>
<totfact> 0.13236367E+04</totfact>
</mgrwt>
</event>
<event>
 6      1 +1.8175624e-03 4.87867000e+02 7.81860800e-03 1.01699500e-01
       -2 -1    0    0    0  501 -0.0000000000e+00 +0.0000000000e+00 +3.4162649993e+02 3.4162649994e+02 2.5500000000e-03 0.0000e+00 -1.0000e+00
        2 -1    0    0  501    0 +0.0000000000e+00 -0.0000000000e+00 -1.7417721168e+02 1.7417721169e+02 2.5500000000e-03 0.0000e+00 1.0000e+00
      -13  1    1    2    0    0 +3.3839331857e+01 -2.2680544051e+01 +1.0346355998e+02 1.1119454513e+02 1.0566000000e-01 0.0000e+00 -1.0000e+00
       13  1    1    2    0    0 +2.2987876236e+01 +1.9940356824e+01 +1.1116159503e+02 1.1525177508e+02 1.0566000000e-01 0.0000e+00 1.0000e+00
      -13  1    1    2    0    0 +8.9588401738e+01 -3.0076728890e+01 +5.3565305776e+01 1.0862754942e+02 1.0566000000e-01 0.0000e+00 -1.0000e+00
       13  1    1    2    0    0 -1.4641560983e+02 +3.2816916117e+01 -1.0074117253e+02 1.8072984201e+02 1.0566000000e-01 0.0000e+00 1.0000e+00
<mgrwt>
<rscale>  0 0.48786699E+03</rscale>
<asrwt>0</asrwt>
<pdfrwt beam="1">  1        2 0.43544303E-01 0.48786699E+03</pdfrwt>
<pdfrwt beam="2">  1       -2 0.85406625E-01 0.48786699E+03</pdfrwt>
<totfact> 0.14253618E+02</totfact>
</mgrwt>
</event>
<event>
 6      1 +1.8175624e-03 5.90853500e+02 7.81860800e-03 9.92456600e-02
       -1 -1    0    0    0  501 -0.0000000000e+00 +0.0000000000e+00 +2.2716286027e+02 2.2716286033e+02 5.0400000000e-03 0.0000e+00 1.0000e+00
        1 -1    0    0  501    0 +0.0000000000e+00 -0.0000000000e+00 -3.8420431052e+02 3.8420431055e+02 5.0400000000e-03 0.0000e+00 -1.0000e+00
      -13  1    1    2    0    0 -9.5511252659e+00 +7.3911213248e+01 +5.6897856159e+01 9.3762831854e+01 1.0566000000e-01 0.0000e+00 1.0000e+00
       13  1    1    2    0    0 +5.8757888433e+01 +3.7708604835e+01 -1.8672836305e+01 7.2271116716e+01 1.0566000000e-01 0.0000e+00 -1.0000e+00
      -13  1    1    2    0    0 +1.5435158668e+02 -8.2663679165e+01 -2.2029987000e+01 1.7647387244e+02 1.0566000000e-01 0.0000e+00 1.0000e+00
       13  1    1    2    0    0 -2.0355834984e+02 -2.8956138918e+01 -1.7323648310e+02 2.6885934987e+02 1.0566000000e-01 0.0000e+00 -1.0000e+00
<mgrwt>
<rscale>  0 0.59085345E+03</rscale>
<asrwt>0</asrwt>
<pdfrwt beam="1">  1        1 0.96051077E-01 0.59085345E+03</pdfrwt>
<pdfrwt beam="2">  1       -1 0.56790715E-01 0.59085345E+03</pdfrwt>
<totfact> 0.10455389E+02</totfact>
</mgrwt>
</event>
<event>
 6      1 +1.8175624e-03 4.24627200e+02 7.81860800e-03 1.03557100e-01
       -2 -1    0    0    0  501 -0.0000000000e+00 +0.0000000000e+00 +6.5122912410e+02 6.5122912411e+02 2.5500000000e-03 0.0000e+00 1.0000e+00
        2 -1    0    0  501    0 +0.0000000000e+00 -0.0000000000e+00 -6.9218445927e+01 6.9218445974e+01 2.5500000000e-03 0.0000e+00 -1.0000e+00
      -13  1    1    2    0    0 -3.8686097542e+01 -2.0156878672e+01 +1.6110223440e+01 4.6502304934e+01 1.0566000000e-01 0.0000e+00 1.0000e+00
       13  1    1    2    0    0 +3.3422932166e+01 -4.2766490539e+01 +1.5116184110e+02 1.6061126510e+02 1.0566000000e-01 0.0000e+00 -1.0000e+00
      -13  1    1    2    0    0 -7.9566578708e+00 +1.5085844880e+02 +3.9407876838e+02 4.2204225716e+02 1.0566000000e-01 0.0000e+00 1.0000e+00
       13  1    1    2    0    0 +1.3219823246e+01 -8.7935079590e+01 +2.0659845255e+01 9.1291742886e+01 1.0566000000e-01 0.0000e+00 -1.0000e+00
<mgrwt>
<rscale>  0 0.42462722E+03</rscale>
<asrwt>0</asrwt>
<pdfrwt beam="1">  1        2 0.17304612E-01 0.42462722E+03</pdfrwt>
<pdfrwt beam="2">  1       -2 0.16280728E+00 0.42462722E+03</pdfrwt>
<totfact> 0.83414361E+01</totfact>
</mgrwt>
</event>
<event>
 6      1 +1.8175624e-03 1.71797700e+02 7.81860800e-03 1.17598600e-01
       -2 -1    0    0    0  501 -0.0000000000e+00 +0.0000000000e+00 +4.8150823475e+01 4.8150823543e+01 2.5500000000e-03 0.0000e+00 -1.0000e+00
        2 -1    0    0  501    0 +0.0000000000e+00 -0.0000000000e+00 -1.5323955505e+02 1.5323955507e+02 2.5500000000e-03 0.0000e+00 1.0000e+00
      -13  1    1    2    0    0 +1.4331823119e+01 +9.1040018482e+00 -4.6646016978e+01 4.9640165869e+01 1.0566000000e-01 0.0000e+00 1.0000e+00
       13  1    1    2    0    0 +1.5116368029e+01 +1.3217130478e+01 -3.0468385860e+01 3.6490146909e+01 1.0566000000e-01 0.0000e+00 1.0000e+00
      -13  1    1    2    0    0 -5.8213038909e+01 -1.2821123352e+01 +1.6131964359e+01 6.1752656146e+01 1.0566000000e-01 0.0000e+00 -1.0000e+00
       13  1    1    2    0    0 +2.8764847760e+01 -9.5000089750e+00 -4.4106293099e+01 5.3507409694e+01 1.0566000000e-01 0.0000e+00 -1.0000e+00
<mgrwt>
<rscale>  0 0.17179768E+03</rscale>
<asrwt>0</asrwt>
<pdfrwt beam="1">  1        2 0.38309888E-01 0.17179768E+03</pdfrwt>
<pdfrwt beam="2">  1       -2 0.12037706E-01 0.17179768E+03</pdfrwt>
<totfact> 0.63724015E+03</totfact>
</mgrwt>
</event>
<event>
 6      1 +1.8175624e-03 4.64830700e+02 7.81860800e-03 1.02338900e-01
        2 -1    0    0  501    0 +0.0000000000e+00 +0.0000000000e+00 +3.5754922812e+02 3.5754922812e+02 2.5500000000e-03 0.0000e+00 -1.0000e+00
       -2 -1    0    0    0  501 -0.0000000000e+00 -0.0000000000e+00 -1.5107540948e+02 1.5107540950e+02 2.5500000000e-03 0.0000e+00 1.0000e+00
      -13  1    1    2    0    0 -1.2044664813e+02 -3.3073542312e+01 +2.0374884809e+01 1.2655592180e+02 1.0566000000e-01 0.0000e+00 1.0000e+00
       13  1    1    2    0    0 +1.7594725673e+02 -1.0059456572e+01 +1.4736590345e+02 2.2972886297e+02 1.0566000000e-01 0.0000e+00 -1.0000e+00
      -13  1    1    2    0    0 +1.1709664505e+01 +2.7601344896e+01 +7.0338746679e+01 7.6462415154e+01 1.0566000000e-01 0.0000e+00 -1.0000e+00
       13  1    1    2    0    0 -6.7210273103e+01 +1.5531653988e+01 -3.1605716302e+01 7.5877437708e+01 1.0566000000e-01 0.0000e+00 1.0000e+00
<mgrwt>
<rscale>  0 0.46483070E+03</rscale>
<asrwt>0</asrwt>
<pdfrwt beam="1">  1        2 0.89387307E-01 0.46483070E+03</pdfrwt>
<pdfrwt beam="2">  1       -2 0.37768853E-01 0.46483070E+03</pdfrwt>
<totfact> 0.34720171E+02</totfact>
</mgrwt>
</event>
<event>
 6      1 +1.8175624e-03 2.77683100e+02 7.81860800e-03 1.09696100e-01
        2 -1    0    0  501    0 +0.0000000000e+00 +0.0000000000e+00 +1.1660107787e+03 1.1660107787e+03 2.5500000000e-03 0.0000e+00 1.0000e+00
       -2 -1    0    0    0  501 -0.0000000000e+00 -0.0000000000e+00 -1.6532421689e+01 1.6532421886e+01 2.5500000000e-03 0.0000e+00 -1.0000e+00
      -13  1    1    2    0    0 +1.8898754230e+01 -6.2640419679e+01 +3.4655336057e+02 3.5267581144e+02 1.0566000000e-01 0.0000e+00 1.0000e+00
       13  1    1    2    0    0 -6.8057144989e+01 -3.5488394787e+01 +2.3629169813e+02 2.4844512255e+02 1.0566000000e-01 0.0000e+00 -1.0000e+00
      -13  1    1    2    0    0 +5.3957586628e+01 +3.8757032360e+01 +3.7173762693e+02 3.7762733369e+02 1.0566000000e-01 0.0000e+00 1.0000e+00
       13  1    1    2    0    0 -4.7991958686e+00 +5.9371782106e+01 +1.9489567136e+02 2.0379493289e+02 1.0566000000e-01 0.0000e+00 -1.0000e+00
<mgrwt>
<rscale>  0 0.27768314E+03</rscale>
<asrwt>0</asrwt>
<pdfrwt beam="1">  1        2 0.29150269E+00 0.27768314E+03</pdfrwt>
<pdfrwt beam="2">  1       -2 0.41331055E-02 0.27768314E+03</pdfrwt>
<totfact> 0.22056485E+03</totfact>
</mgrwt>
</event>
<event>
 6      1 +1.8175624e-03 1.96550600e+02 7.81860800e-03 1.15268200e-01
        2 -1    0    0  501    0 +0.0000000000e+00 +0.0000000000e+00 +1.8011088842e+02 1.8011088844e+02 2.5500000000e-03 0.0000e+00 -1.0000e+00
       -2 -1    0    0    0  501 -0.0000000000e+00 -0.0000000000e+00 -5.3622692965e+01 5.3622693026e+01 2.5500000000e-03 0.0000e+00 1.0000e+00
      -13  1    1    2    0    0 +8.0631221588e+00 +3.4121408092e+01 +3.8181705490e+01 5.1837614020e+01 1.0566000000e-01 0.0000e+00 -1.0000e+00
       13  1    1    2    0    0 +3.1135677583e+01 -4.8193094719e+01 -2.4947788209e+00 5.7430304566e+01 1.0566000000e-01 0.0000e+00 1.0000e+00
      -13  1    1    2    0    0 -6.0320775806e+01 +1.2414528055e+01 +5.3550925257e+01 8.1611452998e+01 1.0566000000e-01 0.0000e+00 1.0000e+00
       13  1    1    2    0    0 +2.1121976064e+01 +1.6571585730e+00 +3.7250343534e+01 4.2854209884e+01 1.0566000000e-01 0.0000e+00 -1.0000e+00
<mgrwt>
<rscale>  0 0.19655056E+03</rscale>
<asrwt>0</asrwt>
<pdfrwt beam="1">  1        2 0.45027722E-01 0.19655056E+03</pdfrwt>
<pdfrwt beam="2">  1       -2 0.13405673E-01 0.19655056E+03</pdfrwt>
<totfact> 0.45359135E+03</totfact>
</mgrwt>
</event>
<event>
 6      1 +1.8175624e-03 3.70566700e+02 7.81860800e-03 1.05447700e-01
        2 -1    0    0  501    0 +0.0000000000e+00 +0.0000000000e+00 +1.0355758187e+02 1.0355758190e+02 2.5500000000e-03 0.0000e+00 -1.0000e+00
       -2 -1    0    0    0  501 -0.0000000000e+00 -0.0000000000e+00 -3.3150552803e+02 3.3150552804e+02 2.5500000000e-03 0.0000e+00 1.0000e+00
      -13  1    1    2    0    0 +4.8656398842e+01 +4.6588578000e+01 -4.1443236052e+01 7.9091679252e+01 1.0566000000e-01 0.0000e+00 -1.0000e+00
       13  1    1    2    0    0 +5.0404898870e+01 +7.5973610229e+01 +2.2204659929e+00 9.1200794485e+01 1.0566000000e-01 0.0000e+00 -1.0000e+00
      -13  1    1    2    0    0 -8.2063052725e+01 -9.3443117465e+01 -1.9420445424e+02 2.3061080208e+02 1.0566000000e-01 0.0000e+00 1.0000e+00
       13  1    1    2    0    0 -1.6998244987e+01 -2.9119070764e+01 +5.4792781427e+00 3.4159834130e+01 1.0566000000e-01 0.0000e+00 1.0000e+00
<mgrwt>
<rscale>  0 0.37056665E+03</rscale>
<asrwt>0</asrwt>
<pdfrwt beam="1">  1        2 0.25889396E-01 0.37056665E+03</pdfrwt>
<pdfrwt beam="2">  1       -2 0.82876380E-01 0.37056665E+03</pdfrwt>
<totfact> 0.27294805E+02</totfact>
</mgrwt>
</event>
<event>
 6      1 +1.8175624e-03 3.88247700e+02 7.81860800e-03 1.04792700e-01
        2 -1    0    0  501    0 +0.0000000000e+00 +0.0000000000e+00 +6.2480440212e+01 6.2480440264e+01 2.5500000000e-03 0.0000e+00 1.0000e+00
       -2 -1    0    0    0  501 -0.0000000000e+00 -0.0000000000e+00 -6.0313386167e+02 6.0313386168e+02 2.5500000000e-03 0.0000e+00 -1.0000e+00
      -13  1    1    2    0    0 +7.3081068827e+01 +2.1844594144e+01 -7.5821874516e+01 1.0754997319e+02 1.0566000000e-01 0.0000e+00 -1.0000e+00
       13  1    1    2    0    0 +2.9004214009e+00 -6.9246899417e+01 -1.7408487741e+02 1.8737422777e+02 1.0566000000e-01 0.0000e+00 1.0000e+00
      -13  1    1    2    0    0 -6.3812787578e+01 +9.8589415991e+01 -2.9538272351e+02 3.1787247336e+02 1.0566000000e-01 0.0000e+00 -1.0000e+00
       13  1    1    2    0    0 -1.2168702650e+01 -5.1187110718e+01 +4.6360539792e+00 5.2817627629e+01 1.0566000000e-01 0.0000e+00 1.0000e+00
<mgrwt>
<rscale>  0 0.38824770E+03</rscale>
<asrwt>0</asrwt>
<pdfrwt beam="1">  1        2 0.15620112E-01 0.38824770E+03</pdfrwt>
<pdfrwt beam="2">  1       -2 0.15078345E+00 0.38824770E+03</pdfrwt>
<totfact> 0.11577241E+02</totfact>
</mgrwt>
</event>
<event>
 6      1 +1.8175624e-03 2.03782300e+02 7.81860800e-03 1.14658700e-01
        2 -1    0    0  501    0 +0.0000000000e+00 +0.0000000000e+00 +4.1738200238e+02 4.1738200238e+02 2.5500000000e-03 0.0000e+00 -1.0000e+00
       -2 -1    0    0    0  501 -0.0000000000e+00 -0.0000000000e+00 -2.4873628816e+01 2.4873628946e+01 2.5500000000e-03 0.0000e+00 1.0000e+00
      -13  1    1    2    0    0 -3.1315692745e+01 -3.5986956705e+01 +3.9248685648e+01 6.1775433257e+01 1.0566000000e-01 0.0000e+00 -1.0000e+00
       13  1    1    2    0    0 +7.4248095254e+01 -6.4104016104e+00 +1.6753330498e+02 1.8336109822e+02 1.0566000000e-01 0.0000e+00 -1.0000e+00
      -13  1    1    2    0    0 -8.7655702715e+00 +4.9631096623e+00 +9.8626347732e+00 1.4097886665e+01 1.0566000000e-01 0.0000e+00 1.0000e+00
       13  1    1    2    0    0 -3.4166832238e+01 +3.7434248653e+01 +1.7586374816e+02 1.8302121319e+02 1.0566000000e-01 0.0000e+00 1.0000e+00
<mgrwt>
<rscale>  0 0.20378229E+03</rscale>
<asrwt>0</asrwt>
<pdfrwt beam="1">  1        2 0.10434550E+00 0.20378229E+03</pdfrwt>
<pdfrwt beam="2">  1       -2 0.62184075E-02 0.20378229E+03</pdfrwt>
<totfact> 0.60092947E+03</totfact>
</mgrwt>
</event>
<event>
 6      1 +1.8175624e-03 7.04831000e+02 7.81860800e-03 9.70900600e-02
       -2 -1    0    0    0  501 -0.0000000000e+00 +0.0000000000e+00 +8.5924433684e+02 8.5924433684e+02 2.5500000000e-03 0.0000e+00 -1.0000e+00
        2 -1    0    0  501    0 +0.0000000000e+00 -0.0000000000e+00 -1.4454176164e+02 1.4454176167e+02 2.5500000000e-03 0.0000e+00 1.0000e+00
      -13  1    1    2    0    0 -7.2633980693e+01 -1.5273951626e+01 +5.9926348501e+01 9.5394796285e+01 1.0566000000e-01 0.0000e+00 -1.0000e+00
       13  1    1    2    0    0 +6.7146813328e+00 -5.6037753880e+01 +1.6764170795e+01 5.8875847270e+01 1.0566000000e-01 0.0000e+00 1.0000e+00
      -13  1    1    2    0    0 +2.1095157413e+02 +2.3945782870e+02 +4.8225236072e+02 5.7828018203e+02 1.0566000000e-01 0.0000e+00 -1.0000e+00
       13  1    1    2    0    0 -1.4503227476e+02 -1.6814612319e+02 +1.5575969518e+02 2.7123527292e+02 1.0566000000e-01 0.0000e+00 1.0000e+00
<mgrwt>
<rscale>  0 0.70483102E+03</rscale>
<asrwt>0</asrwt>
<pdfrwt beam="1">  1        2 0.36135440E-01 0.70483102E+03</pdfrwt>
<pdfrwt beam="2">  1       -2 0.21481108E+00 0.70483102E+03</pdfrwt>
<totfact> 0.15751177E+01</totfact>
</mgrwt>
</event>
<event>
 6      1 +1.8175624e-03 2.90386700e+02 7.81860800e-03 1.09014700e-01
        1 -1    0    0  501    0 +0.0000000000e+00 +0.0000000000e+00 +1.7315372910e+02 1.7315372917e+02 5.0400000000e-03 0.0000e+00 -1.0000e+00
       -1 -1    0    0    0  501 -0.0000000000e+00 -0.0000000000e+00 -1.2174790158e+02 1.2174790169e+02 5.0400000000e-03 0.0000e+00 1.0000e+00
      -13  1    1    2    0    0 +3.5273699174e+01 -2.5436369942e+01 +9.5332198613e+00 4.4521188374e+01 1.0566000000e-01 0.0000e+00 1.0000e+00
       13  1    1    2    0    0 -1.8626026365e+01 +2.6609607827e+01 +2.8681668938e+00 3.2607324825e+01 1.0566000000e-01 0.0000e+00 1.0000e+00
      -13  1    1    2    0    0 +5.7216267550e+01 -7.5842837176e+00 +1.0415234751e+02 1.1907537649e+02 1.0566000000e-01 0.0000e+00 -1.0000e+00
       13  1    1    2    0    0 -7.3863940359e+01 +6.4110458326e+00 -6.5147906746e+01 9.8697741167e+01 1.0566000000e-01 0.0000e+00 -1.0000e+00
<mgrwt>
<rscale>  0 0.29038666E+03</rscale>
<asrwt>0</asrwt>
<pdfrwt beam="1">  1        1 0.43288432E-01 0.29038666E+03</pdfrwt>
<pdfrwt beam="2">  1       -1 0.30436976E-01 0.29038666E+03</pdfrwt>
<totfact> 0.94923685E+02</totfact>
</mgrwt>
</event>
<event>
 6      1 +1.8175624e-03 2.12941800e+02 7.81860800e-03 1.13925700e-01
        1 -1    0    0  501    0 +0.0000000000e+00 +0.0000000000e+00 +2.2764758521e+02 2.2764758526e+02 5.0400000000e-03 0.0000e+00 -1.0000e+00
       -1 -1    0    0    0  501 -0.0000000000e+00 -0.0000000000e+00 -4.9796512644e+01 4.9796512899e+01 5.0400000000e-03 0.0000e+00 1.0000e+00
      -13  1    1    2    0    0 +1.3366969765e+01 -1.9958878464e+01 +6.6548462294e+01 7.0751266476e+01 1.0566000000e-01 0.0000e+00 1.0000e+00
       13  1    1    2    0    0 -3.1228045176e+01 +8.3643496767e+01 +7.1083226333e+01 1.1412388701e+02 1.0566000000e-01 0.0000e+00 -1.0000e+00
      -13  1    1    2    0    0 -6.6781592636e+00 -2.5280926630e+01 -6.8712735916e+00 2.7036061607e+01 1.0566000000e-01 0.0000e+00 1.0000e+00
       13  1    1    2    0    0 +2.4539234675e+01 -3.8403691673e+01 +4.7090657528e+01 6.5532883067e+01 1.0566000000e-01 0.0000e+00 -1.0000e+00
<mgrwt>
<rscale>  0 0.21294183E+03</rscale>
<asrwt>0</asrwt>
<pdfrwt beam="1">  1        1 0.56911895E-01 0.21294183E+03</pdfrwt>
<pdfrwt beam="2">  1       -1 0.12449128E-01 0.21294183E+03</pdfrwt>
<totfact> 0.28642757E+03</totfact>
</mgrwt>
</event>
<event>
 7      1 +1.8175624e-03 8.35656300e+01 7.81860800e-03 1.31922700e-01
        2 -1    0    0  501    0 +0.0000000000e+00 +0.0000000000e+00 +2.7496516172e+01 2.7496516290e+01 2.5500000000e-03 0.0000e+00 -1.0000e+00
       -2 -1    0    0    0  501 -0.0000000000e+00 -0.0000000000e+00 -6.3491811605e+01 6.3491811656e+01 2.5500000000e-03 0.0000e+00 1.0000e+00
       23  2    1    2    0    0 +0.0000000000e+00 -1.7763568394e-15 -3.5995295433e+01 9.0988327946e+01 8.3565630071e+01 0.0000e+00 0.0000e+00
      -13  1    3    3    0    0 -2.1746302699e+01 -1.5654537015e+01 -7.7124636529e+00 2.7882960206e+01 1.0566000000e-01 0.0000e+00 -1.0000e+00
       13  1    3    3    0    0 +2.2266961976e+01 +1.5601615190e+01 -5.6490829583e+00 2.7769610989e+01 1.0566000000e-01 0.0000e+00 1.0000e+00
      -13  1    3    3    0    0 -4.2307423612e+00 +1.2466315848e+01 -1.6184996686e+01 2.0863209090e+01 1.0566000000e-01 0.0000e+00 -1.0000e+00
       13  1    3    3    0    0 +3.7100830847e+00 -1.2413394023e+01 -6.4487521355e+00 1.4472547661e+01 1.0566000000e-01 0.0000e+00 1.0000e+00
<mgrwt>
<rscale>  0 0.83565630E+02</rscale>
<asrwt>0</asrwt>
<pdfrwt beam="1">  1        2 0.68741292E-02 0.83565630E+02</pdfrwt>
<pdfrwt beam="2">  1       -2 0.15872953E-01 0.83565630E+02</pdfrwt>
<totfact> 0.27858054E+04</totfact>
</mgrwt>
</event>
<event>
 6      1 +1.8175624e-03 3.94629900e+02 7.81860800e-03 1.04565500e-01
       -2 -1    0    0    0  501 -0.0000000000e+00 +0.0000000000e+00 +9.9230928999e+01 9.9230929032e+01 2.5500000000e-03 0.0000e+00 -1.0000e+00
        2 -1    0    0  501    0 +0.0000000000e+00 -0.0000000000e+00 -3.9234942941e+02 3.9234942941e+02 2.5500000000e-03 0.0000e+00 1.0000e+00
      -13  1    1    2    0    0 -3.6016777869e+01 +4.1713137642e+01 -9.2474957127e+01 1.0765139572e+02 1.0566000000e-01 0.0000e+00 1.0000e+00
       13  1    1    2    0    0 +8.2083531242e+00 -3.2868275205e+01 -3.2691646122e+00 3.4035263731e+01 1.0566000000e-01 0.0000e+00 -1.0000e+00
      -13  1    1    2    0    0 -1.0744921517e+02 +6.3063640844e+01 -4.1426875767e+01 1.3129567334e+02 1.0566000000e-01 0.0000e+00 -1.0000e+00
       13  1    1    2    0    0 +1.3525763991e+02 -7.1908503281e+01 -1.5594750290e+02 2.1859802566e+02 1.0566000000e-01 0.0000e+00 1.0000e+00
<mgrwt>
<rscale>  0 0.39462995E+03</rscale>
<asrwt>0</asrwt>
<pdfrwt beam="1">  1        2 0.98087353E-01 0.39462995E+03</pdfrwt>
<pdfrwt beam="2">  1       -2 0.24807733E-01 0.39462995E+03</pdfrwt>
<totfact> 0.67713168E+02</totfact>
</mgrwt>
</event>
<event>
 6      1 +1.8175624e-03 2.24173800e+02 7.81860800e-03 1.13080900e-01
        2 -1    0    0  501    0 +0.0000000000e+00 +0.0000000000e+00 +8.2470127996e+01 8.2470128035e+01 2.5500000000e-03 0.0000e+00 1.0000e+00
       -2 -1    0    0    0  501 -0.0000000000e+00 -0.0000000000e+00 -1.5233964348e+02 1.5233964351e+02 2.5500000000e-03 0.0000e+00 -1.0000e+00
      -13  1    1    2    0    0 +1.0243224018e+01 -6.0433356043e+00 +2.3632819411e+01 2.6456886832e+01 1.0566000000e-01 0.0000e+00 -1.0000e+00
       13  1    1    2    0    0 -2.4481963467e+01 -1.9659773192e+01 +3.0467853946e+01 4.3751280042e+01 1.0566000000e-01 0.0000e+00 1.0000e+00
      -13  1    1    2    0    0 -3.4391065794e+01 +3.1328342428e+01 -2.1940451751e+01 5.1435445296e+01 1.0566000000e-01 0.0000e+00 -1.0000e+00
       13  1    1    2    0    0 +4.8629805243e+01 -5.6252336314e+00 -1.0202973709e+02 1.1316615937e+02 1.0566000000e-01 0.0000e+00 1.0000e+00
<mgrwt>
<rscale>  0 0.22417377E+03</rscale>
<asrwt>0</asrwt>
<pdfrwt beam="1">  1        2 0.20617532E-01 0.22417377E+03</pdfrwt>
<pdfrwt beam="2">  1       -2 0.38084910E-01 0.22417377E+03</pdfrwt>
<totfact> 0.17407135E+03</totfact>
</mgrwt>
</event>
<event>
 6      1 +1.8175624e-03 2.79384200e+02 7.81860800e-03 1.09602600e-01
       -2 -1    0    0    0  501 -0.0000000000e+00 +0.0000000000e+00 +3.3815039380e+01 3.3815039476e+01 2.5500000000e-03 0.0000e+00 -1.0000e+00
        2 -1    0    0  501    0 +0.0000000000e+00 -0.0000000000e+00 -5.7707723916e+02 5.7707723916e+02 2.5500000000e-03 0.0000e+00 1.0000e+00
      -13  1    1    2    0    0 -5.6710145586e+01 -6.5027112916e+01 -2.0484683846e+02 2.2227641444e+02 1.0566000000e-01 0.0000e+00 -1.0000e+00
       13  1    1    2    0    0 +1.6040403905e+01 +2.1686974622e+01 -2.8293563066e+01 3.9091639780e+01 1.0566000000e-01 0.0000e+00 1.0000e+00
      -13  1    1    2    0    0 +3.4550932467e+01 -2.0668667234e+01 -8.5312690349e+00 4.1155248207e+01 1.0566000000e-01 0.0000e+00 -1.0000e+00
       13  1    1    2    0    0 +6.1188092149e+00 +6.4008805528e+01 -3.0159052922e+02 3.0836897621e+02 1.0566000000e-01 0.0000e+00 1.0000e+00
<mgrwt>
<rscale>  0 0.27938425E+03</rscale>
<asrwt>0</asrwt>
<pdfrwt beam="1">  1        2 0.14426928E+00 0.27938425E+03</pdfrwt>
<pdfrwt beam="2">  1       -2 0.84537617E-02 0.27938425E+03</pdfrwt>
<totfact> 0.24871487E+03</totfact>
</mgrwt>
</event>
<event>
 6      1 +1.8175624e-03 3.65146400e+02 7.81860800e-03 1.05656400e-01
       -2 -1    0    0    0  501 -0.0000000000e+00 +0.0000000000e+00 +6.1411500254e+01 6.1411500307e+01 2.5500000000e-03 0.0000e+00 -1.0000e+00
        2 -1    0    0  501    0 +0.0000000000e+00 -0.0000000000e+00 -5.4278057971e+02 5.4278057972e+02 2.5500000000e-03 0.0000e+00 1.0000e+00
      -13  1    1    2    0    0 +8.3676994856e+01 +5.8390699571e+01 -4.9087314368e+01 1.1322936395e+02 1.0566000000e-01 0.0000e+00 -1.0000e+00
       13  1    1    2    0    0 +7.0247192261e+00 -4.3198283854e+01 -2.6046458965e+02 2.6411598216e+02 1.0566000000e-01 0.0000e+00 1.0000e+00
      -13  1    1    2    0    0 -1.1723201471e+02 -2.1833399837e+01 -1.5137042655e+02 1.9269940275e+02 1.0566000000e-01 0.0000e+00 1.0000e+00
       13  1    1    2    0    0 +2.6530300628e+01 +6.6409841196e+00 -2.0446748893e+01 3.4147331167e+01 1.0566000000e-01 0.0000e+00 -1.0000e+00
<mgrwt>
<rscale>  0 0.36514638E+03</rscale>
<asrwt>0</asrwt>
<pdfrwt beam="1">  1        2 0.13569513E+00 0.36514638E+03</pdfrwt>
<pdfrwt beam="2">  1       -2 0.15352877E-01 0.36514638E+03</pdfrwt>
<totfact> 0.10274686E+03</totfact>
</mgrwt>
</event>
<event>
 7      1 +1.8175624e-03 9.15187600e+01 7.81860800e-03 1.29921500e-01
        2 -1    0    0  501    0 +0.0000000000e+00 +0.0000000000e+00 +3.6305962712e+02 3.6305962713e+02 2.5500000000e-03 0.0000e+00 1.0000e+00
       -2 -1    0    0    0  501 -0.0000000000e+00 -0.0000000000e+00 -5.7674295180e+00 5.7674300817e+00 2.5500000000e-03 0.0000e+00 -1.0000e+00
       23  2    1    2    0    0 +8.8817841970e-16 +0.0000000000e+00 +3.5729219760e+02 3.6882705721e+02 9.1518761265e+01 0.0000e+00 0.0000e+00
      -13  1    3    3    0    0 +5.1857170152e-01 +1.6845344399e+01 +2.8366018933e+01 3.2995101738e+01 1.0566000000e-01 0.0000e+00 -1.0000e+00
       13  1    3    3    0    0 -2.4501345179e+00 -3.4196767382e+01 +1.7963311809e+02 1.8287561439e+02 1.0566000000e-01 0.0000e+00 1.0000e+00
      -13  1    3    3    0    0 -1.2098065323e+01 +4.2606837206e+00 +4.0458139341e+01 4.2442771037e+01 1.0566000000e-01 0.0000e+00 -1.0000e+00
       13  1    3    3    0    0 +1.4029628139e+01 +1.3090739262e+01 +1.0883492124e+02 1.1051357005e+02 1.0566000000e-01 0.0000e+00 1.0000e+00
<mgrwt>
<rscale>  0 0.91518761E+02</rscale>
<asrwt>0</asrwt>
<pdfrwt beam="1">  1        2 0.90764905E-01 0.91518761E+02</pdfrwt>
<pdfrwt beam="2">  1       -2 0.14418575E-02 0.91518761E+02</pdfrwt>
<totfact> 0.56914316E+04</totfact>
</mgrwt>
</event>
<event>
 6      1 +1.8175624e-03 2.15037100e+02 7.81860800e-03 1.13763800e-01
       -3 -1    0    0    0  501 -0.0000000000e+00 +0.0000000000e+00 +5.8609116404e+01 5.8609203430e+01 1.0100000000e-01 0.0000e+00 1.0000e+00
        3 -1    0    0  501    0 +0.0000000000e+00 -0.0000000000e+00 -1.9724274767e+02 1.9724277353e+02 1.0100000000e-01 0.0000e+00 -1.0000e+00
      -13  1    1    2    0    0 +3.0385743308e+01 +2.7219607549e+01 +5.7310762572e+00 4.1195349623e+01 1.0566000000e-01 0.0000e+00 1.0000e+00
       13  1    1    2    0    0 -1.4905824989e+01 +3.1720145744e+01 -4.8054353684e+01 5.9477586843e+01 1.0566000000e-01 0.0000e+00 -1.0000e+00
      -13  1    1    2    0    0 +8.3526523782e+00 -7.0522468016e+01 -1.9086868415e+01 7.3535739656e+01 1.0566000000e-01 0.0000e+00 -1.0000e+00
       13  1    1    2    0    0 -2.3832570698e+01 +1.1582714724e+01 -7.7223485426e+01 8.1643300838e+01 1.0566000000e-01 0.0000e+00 1.0000e+00
<mgrwt>
<rscale>  0 0.21503709E+03</rscale>
<asrwt>0</asrwt>
<pdfrwt beam="1">  1        3 0.49310700E-01 0.21503709E+03</pdfrwt>
<pdfrwt beam="2">  1       -3 0.14652294E-01 0.21503709E+03</pdfrwt>
<totfact> 0.39116088E+02</totfact>
</mgrwt>
</event>
<event>
 7      1 +1.8175624e-03 9.66393500e+01 7.81860800e-03 1.28752600e-01
        2 -1    0    0  501    0 +0.0000000000e+00 +0.0000000000e+00 +1.4811044461e+01 1.4811044680e+01 2.5500000000e-03 0.0000e+00 1.0000e+00
       -2 -1    0    0    0  501 -0.0000000000e+00 -0.0000000000e+00 -1.5763851251e+02 1.5763851253e+02 2.5500000000e-03 0.0000e+00 -1.0000e+00
       23  2    1    2    0    0 -3.5527136788e-15 -1.7763568394e-15 -1.4282746805e+02 1.7244955721e+02 9.6639350955e+01 0.0000e+00 0.0000e+00
      -13  1    3    3    0    0 -3.3682813280e+01 -1.5326802308e+01 -5.2851151846e+01 6.4518975465e+01 1.0566000000e-01 0.0000e+00 -1.0000e+00
       13  1    3    3    0    0 +4.8860374956e+00 +1.3031392452e+01 -4.1375237288e+01 4.3653315754e+01 1.0566000000e-01 0.0000e+00 1.0000e+00
      -13  1    3    3    0    0 +6.1352303409e+00 -8.2588225041e+00 -7.8276429426e-01 1.0318579576e+01 1.0566000000e-01 0.0000e+00 -1.0000e+00
       13  1    3    3    0    0 +2.2661545444e+01 +1.0554232360e+01 -4.7818314620e+01 5.3958686416e+01 1.0566000000e-01 0.0000e+00 1.0000e+00
<mgrwt>
<rscale>  0 0.96639351E+02</rscale>
<asrwt>0</asrwt>
<pdfrwt beam="1">  1        2 0.37027616E-02 0.96639351E+02</pdfrwt>
<pdfrwt beam="2">  1       -2 0.39409623E-01 0.96639351E+02</pdfrwt>
<totfact> 0.12962601E+04</totfact>
</mgrwt>
</event>
<event>
 6      1 +1.8175624e-03 2.31081500e+02 7.81860800e-03 1.12588100e-01
       -4 -1    0    0    0  501 -0.0000000000e+00 +0.0000000000e+00 +5.6376342020e+01 5.6390644965e+01 1.2700000000e+00 0.0000e+00 1.0000e+00
        4 -1    0    0  501    0 +0.0000000000e+00 -0.0000000000e+00 -2.3674950508e+02 2.3675291140e+02 1.2700000000e+00 0.0000e+00 -1.0000e+00
      -13  1    1    2    0    0 -4.9295151002e+01 -2.2455978252e+01 -5.1773386155e+01 7.4931819340e+01 1.0566000000e-01 0.0000e+00 -1.0000e+00
       13  1    1    2    0    0 +2.2427901232e+01 +3.8831785629e+01 -5.7919106606e+01 7.3249931078e+01 1.0566000000e-01 0.0000e+00 1.0000e+00
      -13  1    1    2    0    0 -2.6453695992e+01 +1.2489230174e+01 +2.0314998889e+01 3.5615856663e+01 1.0566000000e-01 0.0000e+00 1.0000e+00
       13  1    1    2    0    0 +5.3320945762e+01 -2.8865037551e+01 -9.0995669192e+01 1.0934594929e+02 1.0566000000e-01 0.0000e+00 -1.0000e+00
<mgrwt>
<rscale>  0 0.23108152E+03</rscale>
<asrwt>0</asrwt>
<pdfrwt beam="1">  1        4 0.59189587E-01 0.23108152E+03</pdfrwt>
<pdfrwt beam="2">  1       -4 0.14096300E-01 0.23108152E+03</pdfrwt>
<totfact> 0.20839874E+02</totfact>
</mgrwt>
</event>
<event>
 6      1 +1.8175624e-03 3.63843500e+02 7.81860800e-03 1.05707200e-01
        1 -1    0    0  501    0 +0.0000000000e+00 +0.0000000000e+00 +2.4562136076e+02 2.4562136081e+02 5.0400000000e-03 0.0000e+00 -1.0000e+00
       -1 -1    0    0    0  501 -0.0000000000e+00 -0.0000000000e+00 -1.3474205825e+02 1.3474205834e+02 5.0400000000e-03 0.0000e+00 1.0000e+00
      -13  1    1    2    0    0 -2.0095813410e+01 -1.0423067217e+01 -2.2072396316e+00 2.2745661513e+01 1.0566000000e-01 0.0000e+00 -1.0000e+00
       13  1    1    2    0    0 +1.8270545628e+01 +5.3848765925e+00 +7.0294513554e+00 2.0303548553e+01 1.0566000000e-01 0.0000e+00 1.0000e+00
      -13  1    1    2    0    0 +1.0393104959e+02 -1.1872140476e+02 +3.3874237695e+01 1.6138125716e+02 1.0566000000e-01 0.0000e+00 1.0000e+00
       13  1    1    2    0    0 -1.0210578181e+02 +1.2375959539e+02 +7.2182853087e+01 1.7593295193e+02 1.0566000000e-01 0.0000e+00 -1.0000e+00
<mgrwt>
<rscale>  0 0.36384353E+03</rscale>
<asrwt>0</asrwt>
<pdfrwt beam="1">  1        1 0.61405340E-01 0.36384353E+03</pdfrwt>
<pdfrwt beam="2">  1       -1 0.33685515E-01 0.36384353E+03</pdfrwt>
<totfact> 0.50894834E+02</totfact>
</mgrwt>
</event>
<event>
 6      1 +1.8175624e-03 7.59585700e+02 7.81860800e-03 9.62043100e-02
       -2 -1    0    0    0  501 -0.0000000000e+00 +0.0000000000e+00 +1.6542052095e+02 1.6542052097e+02 2.5500000000e-03 0.0000e+00 1.0000e+00
        2 -1    0    0  501    0 +0.0000000000e+00 -0.0000000000e+00 -8.7197539759e+02 8.7197539759e+02 2.5500000000e-03 0.0000e+00 -1.0000e+00
      -13  1    1    2    0    0 +1.9494216178e+01 +2.0582331580e+01 +9.4025000886e+00 2.9867624774e+01 1.0566000000e-01 0.0000e+00 1.0000e+00
       13  1    1    2    0    0 +2.1553279583e+02 -6.2949274127e+01 -4.4491773507e+02 4.9836612980e+02 1.0566000000e-01 0.0000e+00 -1.0000e+00
      -13  1    1    2    0    0 -2.8735681466e+02 -5.6748686140e+01 -1.0983559301e+02 3.1282298664e+02 1.0566000000e-01 0.0000e+00 1.0000e+00
       13  1    1    2    0    0 +5.2329802658e+01 +9.9115628686e+01 -1.6120404865e+02 1.9633917734e+02 1.0566000000e-01 0.0000e+00 -1.0000e+00
<mgrwt>
<rscale>  0 0.75958574E+03</rscale>
<asrwt>0</asrwt>
<pdfrwt beam="1">  1        2 0.21799384E+00 0.75958574E+03</pdfrwt>
<pdfrwt beam="2">  1       -2 0.41355133E-01 0.75958574E+03</pdfrwt>
<totfact> 0.79764424E+01</totfact>
</mgrwt>
</event>
<event>
 6      1 +1.8175624e-03 2.67243900e+02 7.81860800e-03 1.10286700e-01
        1 -1    0    0  501    0 +0.0000000000e+00 +0.0000000000e+00 +1.2695805834e+02 1.2695805844e+02 5.0400000000e-03 0.0000e+00 -1.0000e+00
       -1 -1    0    0    0  501 -0.0000000000e+00 -0.0000000000e+00 -1.4063562475e+02 1.4063562484e+02 5.0400000000e-03 0.0000e+00 1.0000e+00
      -13  1    1    2    0    0 -2.4925216288e+01 +7.6768084637e+01 -3.6219463698e+01 8.8467315662e+01 1.0566000000e-01 0.0000e+00 1.0000e+00
       13  1    1    2    0    0 +2.7997847803e+01 -6.6438872413e+01 +2.9200282546e+01 7.7786058609e+01 1.0566000000e-01 0.0000e+00 -1.0000e+00
      -13  1    1    2    0    0 +2.8107146389e+01 +3.2867609563e+01 -1.8048372849e+01 4.6861992734e+01 1.0566000000e-01 0.0000e+00 -1.0000e+00
       13  1    1    2    0    0 -3.1179777904e+01 -4.3196821787e+01 +1.1389987598e+01 5.4478316275e+01 1.0566000000e-01 0.0000e+00 1.0000e+00
<mgrwt>
<rscale>  0 0.26724390E+03</rscale>
<asrwt>0</asrwt>
<pdfrwt beam="1">  1        1 0.31739515E-01 0.26724390E+03</pdfrwt>
<pdfrwt beam="2">  1       -1 0.35158906E-01 0.26724390E+03</pdfrwt>
<totfact> 0.10941203E+03</totfact>
</mgrwt>
</event>
<event>
 6      1 +1.8175624e-03 2.50193300e+02 7.81860800e-03 1.11318300e-01
       -2 -1    0    0    0  501 -0.0000000000e+00 +0.0000000000e+00 +3.8003012438e+01 3.8003012523e+01 2.5500000000e-03 0.0000e+00 -1.0000e+00
        2 -1    0    0  501    0 +0.0000000000e+00 -0.0000000000e+00 -4.1178782628e+02 4.1178782629e+02 2.5500000000e-03 0.0000e+00 1.0000e+00
      -13  1    1    2    0    0 +3.7484302002e+01 -3.8242479101e+01 -1.0270071249e+02 1.1582317391e+02 1.0566000000e-01 0.0000e+00 1.0000e+00
       13  1    1    2    0    0 +2.1753550136e+01 -3.7074698873e+00 -8.5910207767e+01 8.8699138886e+01 1.0566000000e-01 0.0000e+00 1.0000e+00
      -13  1    1    2    0    0 -5.9104594653e+01 +1.4620584170e+01 -2.0346688731e+02 2.1238149633e+02 1.0566000000e-01 0.0000e+00 -1.0000e+00
       13  1    1    2    0    0 -1.3325748547e-01 +2.7329364818e+01 +1.8292993712e+01 3.2887029691e+01 1.0566000000e-01 0.0000e+00 -1.0000e+00
<mgrwt>
<rscale>  0 0.25019335E+03</rscale>
<asrwt>0</asrwt>
<pdfrwt beam="1">  1        2 0.10294694E+00 0.25019335E+03</pdfrwt>
<pdfrwt beam="2">  1       -2 0.95007544E-02 0.25019335E+03</pdfrwt>
<totfact> 0.31753339E+03</totfact>
</mgrwt>
</event>
<event>
 6      1 +1.8175624e-03 2.20103000e+02 7.81860800e-03 1.13380600e-01
       -2 -1    0    0    0  501 -0.0000000000e+00 +0.0000000000e+00 +1.1046944185e+02 1.1046944188e+02 2.5500000000e-03 0.0000e+00 1.0000e+00
        2 -1    0    0  501    0 +0.0000000000e+00 -0.0000000000e+00 -1.0963514496e+02 1.0963514499e+02 2.5500000000e-03 0.0000e+00 -1.0000e+00
      -13  1    1    2    0    0 +2.2083603163e+01 -2.7640860198e+00 +3.0154450076e+01 3.7478363406e+01 1.0566000000e-01 0.0000e+00 1.0000e+00
       13  1    1    2    0    0 -7.9300751155e+00 -5.9466237288e+01 -2.4630615506e+01 6.4852122963e+01 1.0566000000e-01 0.0000e+00 -1.0000e+00
      -13  1    1    2    0    0 +2.8697008924e+01 +3.6878162472e+00 -2.9286714841e+01 4.1168448356e+01 1.0566000000e-01 0.0000e+00 -1.0000e+00
       13  1    1    2    0    0 -4.2850536972e+01 +5.8542507061e+01 +2.4597177158e+01 7.6605652141e+01 1.0566000000e-01 0.0000e+00 1.0000e+00
<mgrwt>
<rscale>  0 0.22010301E+03</rscale>
<asrwt>0</asrwt>
<pdfrwt beam="1">  1        2 0.27408786E-01 0.22010301E+03</pdfrwt>
<pdfrwt beam="2">  1       -2 0.27617360E-01 0.22010301E+03</pdfrwt>
<totfact> 0.22820440E+03</totfact>
</mgrwt>
</event>
<event>
 6      1 +1.8175624e-03 2.13093300e+02 7.81860800e-03 1.13914000e-01
       -1 -1    0    0    0  501 -0.0000000000e+00 +0.0000000000e+00 +4.8070259042e+01 4.8070259306e+01 5.0400000000e-03 0.0000e+00 1.0000e+00
        1 -1    0    0  501    0 +0.0000000000e+00 -0.0000000000e+00 -2.3615826361e+02 2.3615826366e+02 5.0400000000e-03 0.0000e+00 -1.0000e+00
      -13  1    1    2    0    0 +3.8862360506e+01 +3.6406539398e+01 -1.1415464120e+02 1.2596433006e+02 1.0566000000e-01 0.0000e+00 -1.0000e+00
       13  1    1    2    0    0 -4.8287726643e+01 +2.2507896743e+01 -2.7433088779e+01 5.9924081004e+01 1.0566000000e-01 0.0000e+00 1.0000e+00
      -13  1    1    2    0    0 +3.3840810542e+01 -4.8361783974e+01 -2.4848471008e+01 6.4043112688e+01 1.0566000000e-01 0.0000e+00 1.0000e+00
       13  1    1    2    0    0 -2.4415444404e+01 -1.0552652167e+01 -2.1651803576e+01 3.4296999218e+01 1.0566000000e-01 0.0000e+00 -1.0000e+00
<mgrwt>
<rscale>  0 0.21309330E+03</rscale>
<asrwt>0</asrwt>
<pdfrwt beam="1">  1        1 0.59039563E-01 0.21309330E+03</pdfrwt>
<pdfrwt beam="2">  1       -1 0.12017565E-01 0.21309330E+03</pdfrwt>
<totfact> 0.28885620E+03</totfact>
</mgrwt>
</event>
<event>
 6      1 +1.8175624e-03 1.89133100e+02 7.81860800e-03 1.15924600e-01
        2 -1    0    0  501    0 +0.0000000000e+00 +0.0000000000e+00 +1.8058081187e+02 1.8058081189e+02 2.5500000000e-03 0.0000e+00 -1.0000e+00
       -2 -1    0    0    0  501 -0.0000000000e+00 -0.0000000000e+00 -4.9522626342e+01 4.9522626407e+01 2.5500000000e-03 0.0000e+00 1.0000e+00
      -13  1    1    2    0    0 -1.3434561334e+01 +1.8639850241e+01 +2.0597580280e-01 2.2977925174e+01 1.0566000000e-01 0.0000e+00 1.0000e+00
       13  1    1    2    0    0 +3.0811296910e+01 -4.1060193043e+01 +8.9745800502e+01 1.0339049928e+02 1.0566000000e-01 0.0000e+00 -1.0000e+00
      -13  1    1    2    0    0 -3.3230331427e+01 -1.1978916227e+01 +5.3301094743e+01 6.3943468982e+01 1.0566000000e-01 0.0000e+00 1.0000e+00
       13  1    1    2    0    0 +1.5853595851e+01 +3.4399259029e+01 -1.2194685519e+01 3.9791544857e+01 1.0566000000e-01 0.0000e+00 -1.0000e+00
<mgrwt>
<rscale>  0 0.18913314E+03</rscale>
<asrwt>0</asrwt>
<pdfrwt beam="1">  1        2 0.45145203E-01 0.18913314E+03</pdfrwt>
<pdfrwt beam="2">  1       -2 0.12380657E-01 0.18913314E+03</pdfrwt>
<totfact> 0.51359888E+03</totfact>
</mgrwt>
</event>
<event>
 6      1 +1.8175624e-03 4.50672700e+02 7.81860800e-03 1.02752200e-01
        2 -1    0    0  501    0 +0.0000000000e+00 +0.0000000000e+00 +1.8077788372e+02 1.8077788374e+02 2.5500000000e-03 0.0000e+00 -1.0000e+00
       -2 -1    0    0    0  501 -0.0000000000e+00 -0.0000000000e+00 -2.8087763248e+02 2.8087763249e+02 2.5500000000e-03 0.0000e+00 1.0000e+00
      -13  1    1    2    0    0 -3.6659110969e+01 +5.9287209879e+00 +2.2074338376e+01 4.3201015362e+01 1.0566000000e-01 0.0000e+00 1.0000e+00
       13  1    1    2    0    0 +5.5609829574e+01 -2.7155540578e+01 -1.1366872224e+01 6.2921327684e+01 1.0566000000e-01 0.0000e+00 -1.0000e+00
      -13  1    1    2    0    0 +7.5866588943e+00 +8.2406560569e+01 -2.1581602871e+02 2.3113841747e+02 1.0566000000e-01 0.0000e+00 1.0000e+00
       13  1    1    2    0    0 -2.6537377499e+01 -6.1179740979e+01 +1.0500881380e+02 1.2439475572e+02 1.0566000000e-01 0.0000e+00 -1.0000e+00
<mgrwt>
<rscale>  0 0.45067267E+03</rscale>
<asrwt>0</asrwt>
<pdfrwt beam="1">  1        2 0.45194471E-01 0.45067267E+03</pdfrwt>
<pdfrwt beam="2">  1       -2 0.70219408E-01 0.45067267E+03</pdfrwt>
<totfact> 0.21156411E+02</totfact>
</mgrwt>
</event>
<event>
 6      1 +1.8175624e-03 7.36615400e+02 7.81860800e-03 9.65658600e-02
        1 -1    0    0  501    0 +0.0000000000e+00 +0.0000000000e+00 +8.3075157337e+02 8.3075157338e+02 5.0400000000e-03 0.0000e+00 -1.0000e+00
       -1 -1    0    0    0  501 -0.0000000000e+00 -0.0000000000e+00 -1.6328656403e+02 1.6328656411e+02 5.0400000000e-03 0.0000e+00 1.0000e+00
      -13  1    1    2    0    0 -1.6059623327e+02 -1.1963223986e+02 +2.4983289713e+02 3.2018668087e+02 1.0566000000e-01 0.0000e+00 -1.0000e+00
       13  1    1    2    0    0 -1.0881496305e+02 +1.3947957280e+01 +6.7587472893e+01 1.2885386821e+02 1.0566000000e-01 0.0000e+00 -1.0000e+00
      -13  1    1    2    0    0 +3.2184753148e+02 +1.2765618591e+02 +3.4357608909e+02 4.8777707560e+02 1.0566000000e-01 0.0000e+00 1.0000e+00
       13  1    1    2    0    0 -5.2436335155e+01 -2.1971903333e+01 +6.4685502141e+00 5.7220512812e+01 1.0566000000e-01 0.0000e+00 1.0000e+00
<mgrwt>
<rscale>  0 0.73661542E+03</rscale>
<asrwt>0</asrwt>
<pdfrwt beam="1">  1        1 0.20768789E+00 0.73661542E+03</pdfrwt>
<pdfrwt beam="2">  1       -1 0.40821642E-01 0.73661542E+03</pdfrwt>
<totfact> 0.50274921E+01</totfact>
</mgrwt>
</event>
<event>
 6      1 +1.8175624e-03 2.23506500e+02 7.81860800e-03 1.13129500e-01
       -2 -1    0    0    0  501 -0.0000000000e+00 +0.0000000000e+00 +2.4676986723e+01 2.4676986854e+01 2.5500000000e-03 0.0000e+00 1.0000e+00
        2 -1    0    0  501    0 +0.0000000000e+00 -0.0000000000e+00 -5.0609070122e+02 5.0609070123e+02 2.5500000000e-03 0.0000e+00 -1.0000e+00
      -13  1    1    2    0    0 -8.6492818590e+00 -2.9322126405e+01 -8.6764879444e+01 9.1993220633e+01 1.0566000000e-01 0.0000e+00 -1.0000e+00
       13  1    1    2    0    0 +5.8508431824e+01 -4.7102611699e+01 -2.4560339169e+02 2.5683249365e+02 1.0566000000e-01 0.0000e+00 -1.0000e+00
      -13  1    1    2    0    0 -7.6134947069e+00 -6.9774955482e+00 -2.0950374514e+01 2.3357656177e+01 1.0566000000e-01 0.0000e+00 1.0000e+00
       13  1    1    2    0    0 -4.2245655258e+01 +8.3402233652e+01 -1.2809506886e+02 1.5858431762e+02 1.0566000000e-01 0.0000e+00 1.0000e+00
<mgrwt>
<rscale>  0 0.22350654E+03</rscale>
<asrwt>0</asrwt>
<pdfrwt beam="1">  1        2 0.12652264E+00 0.22350654E+03</pdfrwt>
<pdfrwt beam="2">  1       -2 0.61692483E-02 0.22350654E+03</pdfrwt>
<totfact> 0.48097951E+03</totfact>
</mgrwt>
</event>
<event>
 6      1 +1.8175624e-03 6.16726600e+02 7.81860800e-03 9.87129900e-02
       -1 -1    0    0    0  501 -0.0000000000e+00 +0.0000000000e+00 +3.1025612407e+02 3.1025612411e+02 5.0400000000e-03 0.0000e+00 1.0000e+00
        1 -1    0    0  501    0 +0.0000000000e+00 -0.0000000000e+00 -3.0648204494e+02 3.0648204498e+02 5.0400000000e-03 0.0000e+00 -1.0000e+00
      -13  1    1    2    0    0 -2.8002486285e+02 +4.9784217779e+01 -7.2284233870e+01 2.9345768653e+02 1.0566000000e-01 0.0000e+00 1.0000e+00
       13  1    1    2    0    0 +2.3171172670e+02 -6.8468618246e+01 +8.8371365340e+01 2.5726986872e+02 1.0566000000e-01 0.0000e+00 1.0000e+00
      -13  1    1    2    0    0 +2.1637685170e+01 +2.5591394388e+01 +4.3727475296e+00 3.3797055659e+01 1.0566000000e-01 0.0000e+00 -1.0000e+00
       13  1    1    2    0    0 +2.6675450974e+01 -6.9069939217e+00 -1.6685799870e+01 3.2213558186e+01 1.0566000000e-01 0.0000e+00 -1.0000e+00
<mgrwt>
<rscale>  0 0.61672662E+03</rscale>
<asrwt>0</asrwt>
<pdfrwt beam="1">  1        1 0.76620511E-01 0.61672662E+03</pdfrwt>
<pdfrwt beam="2">  1       -1 0.77564031E-01 0.61672662E+03</pdfrwt>
<totfact> 0.76484818E+01</totfact>
</mgrwt>
</event>
<event>
 6      1 +1.8175624e-03 2.20351000e+02 7.81860800e-03 1.13362200e-01
        2 -1    0    0  501    0 +0.0000000000e+00 +0.0000000000e+00 +4.6476017494e+01 4.6476017564e+01 2.5500000000e-03 0.0000e+00 -1.0000e+00
       -2 -1    0    0    0  501 -0.0000000000e+00 -0.0000000000e+00 -2.6118069891e+02 2.6118069892e+02 2.5500000000e-03 0.0000e+00 1.0000e+00
      -13  1    1    2    0    0 -2.3191151979e+01 +3.6358937417e+01 -1.6065634432e+01 4.6020839127e+01 1.0566000000e-01 0.0000e+00 1.0000e+00
       13  1    1    2    0    0 +5.1827779999e+01 -2.6171927766e+01 -3.9891771215e+01 7.0444681540e+01 1.0566000000e-01 0.0000e+00 -1.0000e+00
      -13  1    1    2    0    0 -3.1026330086e+01 -5.1767860495e+01 -6.5506862618e+01 8.9071346419e+01 1.0566000000e-01 0.0000e+00 1.0000e+00
       13  1    1    2    0    0 +2.3897020658e+00 +4.1580850844e+01 -9.3240413150e+01 1.0211984940e+02 1.0566000000e-01 0.0000e+00 -1.0000e+00
<mgrwt>
<rscale>  0 0.22035098E+03</rscale>
<asrwt>0</asrwt>
<pdfrwt beam="1">  1        2 0.11619005E-01 0.22035098E+03</pdfrwt>
<pdfrwt beam="2">  1       -2 0.65295171E-01 0.22035098E+03</pdfrwt>
<totfact> 0.11680904E+03</totfact>
</mgrwt>
</event>
<event>
 6      1 +1.8175624e-03 3.15176700e+02 7.81860800e-03 1.07789100e-01
        2 -1    0    0  501    0 +0.0000000000e+00 +0.0000000000e+00 +5.1623133467e+02 5.1623133467e+02 2.5500000000e-03 0.0000e+00 1.0000e+00
       -2 -1    0    0    0  501 -0.0000000000e+00 -0.0000000000e+00 -4.8106499635e+01 4.8106499703e+01 2.5500000000e-03 0.0000e+00 -1.0000e+00
      -13  1    1    2    0    0 -2.7910969458e+01 +1.3590226097e+01 -2.6204354747e+01 4.0625064101e+01 1.0566000000e-01 0.0000e+00 -1.0000e+00
       13  1    1    2    0    0 +4.2238043260e+01 +4.6473678099e+01 +2.6516147011e+02 2.7249673659e+02 1.0566000000e-01 0.0000e+00 1.0000e+00
      -13  1    1    2    0    0 -6.3824907526e+00 -8.0445835815e+01 +1.7147222271e+02 1.8951254052e+02 1.0566000000e-01 0.0000e+00 -1.0000e+00
       13  1    1    2    0    0 -7.9445830498e+00 +2.0381931619e+01 +5.7695496957e+01 6.1703493171e+01 1.0566000000e-01 0.0000e+00 1.0000e+00
<mgrwt>
<rscale>  0 0.31517666E+03</rscale>
<asrwt>0</asrwt>
<pdfrwt beam="1">  1        2 0.12905784E+00 0.31517666E+03</pdfrwt>
<pdfrwt beam="2">  1       -2 0.12026625E-01 0.31517666E+03</pdfrwt>
<totfact> 0.16437819E+03</totfact>
</mgrwt>
</event>
<event>
 6      1 +1.8175624e-03 4.42693200e+02 7.81860800e-03 1.02992400e-01
        1 -1    0    0  501    0 +0.0000000000e+00 +0.0000000000e+00 +7.2602382861e+02 7.2602382862e+02 5.0400000000e-03 0.0000e+00 -1.0000e+00
       -1 -1    0    0    0  501 -0.0000000000e+00 -0.0000000000e+00 -6.7483058603e+01 6.7483058791e+01 5.0400000000e-03 0.0000e+00 1.0000e+00
      -13  1    1    2    0    0 +2.0092384442e+01 +2.1591447507e+01 +2.3421232381e+01 3.7662445596e+01 1.0566000000e-01 0.0000e+00 -1.0000e+00
       13  1    1    2    0    0 +5.0458156727e+01 -1.0998318670e+02 +1.7959872798e+02 2.1655955576e+02 1.0566000000e-01 0.0000e+00 1.0000e+00
      -13  1    1    2    0    0 -1.6455334757e+02 +2.9292175831e+01 +1.9976118699e+02 2.6046185662e+02 1.0566000000e-01 0.0000e+00 -1.0000e+00
       13  1    1    2    0    0 +9.4002806401e+01 +5.9099563360e+01 +2.5575962265e+02 2.7882302944e+02 1.0566000000e-01 0.0000e+00 1.0000e+00
<mgrwt>
<rscale>  0 0.44269316E+03</rscale>
<asrwt>0</asrwt>
<pdfrwt beam="1">  1        1 0.18150596E+00 0.44269316E+03</pdfrwt>
<pdfrwt beam="2">  1       -1 0.16870765E-01 0.44269316E+03</pdfrwt>
<totfact> 0.31055885E+02</totfact>
</mgrwt>
</event>
<event>
 6      1 +1.8175624e-03 4.28072400e+02 7.81860800e-03 1.03447100e-01
        2 -1    0    0  501    0 +0.0000000000e+00 +0.0000000000e+00 +9.9073385839e+02 9.9073385840e+02 2.5500000000e-03 0.0000e+00 -1.0000e+00
       -2 -1    0    0    0  501 -0.0000000000e+00 -0.0000000000e+00 -4.6239971183e+01 4.6239971253e+01 2.5500000000e-03 0.0000e+00 1.0000e+00
      -13  1    1    2    0    0 -3.8834881460e+01 -6.4672218411e+01 +5.9835303230e+01 9.6285609147e+01 1.0566000000e-01 0.0000e+00 -1.0000e+00
       13  1    1    2    0    0 +1.0628668447e+02 +1.1340737737e+02 +6.2312550908e+02 6.4221764517e+02 1.0566000000e-01 0.0000e+00 -1.0000e+00
      -13  1    1    2    0    0 -3.2750793687e+01 -8.5844409800e+01 +1.8576682795e+02 2.0724671942e+02 1.0566000000e-01 0.0000e+00 1.0000e+00
       13  1    1    2    0    0 -3.4701009324e+01 +3.7109250839e+01 +7.5766246957e+01 9.1223855914e+01 1.0566000000e-01 0.0000e+00 1.0000e+00
<mgrwt>
<rscale>  0 0.42807245E+03</rscale>
<asrwt>0</asrwt>
<pdfrwt beam="1">  1        2 0.24768346E+00 0.42807245E+03</pdfrwt>
<pdfrwt beam="2">  1       -2 0.11559993E-01 0.42807245E+03</pdfrwt>
<totfact> 0.61781336E+02</totfact>
</mgrwt>
</event>
<event>
 6      1 +1.8175624e-03 1.80200200e+02 7.81860800e-03 1.16760900e-01
        1 -1    0    0  501    0 +0.0000000000e+00 +0.0000000000e+00 +1.0599705831e+02 1.0599705843e+02 5.0400000000e-03 0.0000e+00 1.0000e+00
       -1 -1    0    0    0  501 -0.0000000000e+00 -0.0000000000e+00 -7.6587274488e+01 7.6587274654e+01 5.0400000000e-03 0.0000e+00 -1.0000e+00
      -13  1    1    2    0    0 +2.9131570751e+00 +1.8265062904e+01 -2.8619310371e+01 3.4076019386e+01 1.0566000000e-01 0.0000e+00 -1.0000e+00
       13  1    1    2    0    0 -3.2450315561e+00 -3.7489260759e+01 -2.6118211316e+01 4.5805534910e+01 1.0566000000e-01 0.0000e+00 -1.0000e+00
      -13  1    1    2    0    0 -2.1300470997e+01 +2.8279465611e+01 +5.2120148158e+01 6.3007612619e+01 1.0566000000e-01 0.0000e+00 1.0000e+00
       13  1    1    2    0    0 +2.1632345478e+01 -9.0552677568e+00 +3.2027157349e+01 3.9695166165e+01 1.0566000000e-01 0.0000e+00 1.0000e+00
<mgrwt>
<rscale>  0 0.18020018E+03</rscale>
<asrwt>0</asrwt>
<pdfrwt beam="1">  1        1 0.26499265E-01 0.18020018E+03</pdfrwt>
<pdfrwt beam="2">  1       -1 0.19146819E-01 0.18020018E+03</pdfrwt>
<totfact> 0.37525344E+03</totfact>
</mgrwt>
</event>
<event>
 6      1 +1.8175624e-03 2.99021700e+02 7.81860800e-03 1.08573100e-01
        2 -1    0    0  501    0 +0.0000000000e+00 +0.0000000000e+00 +9.3000008438e+02 9.3000008438e+02 2.5500000000e-03 0.0000e+00 -1.0000e+00
       -2 -1    0    0    0  501 -0.0000000000e+00 -0.0000000000e+00 -2.4036006182e+01 2.4036006317e+01 2.5500000000e-03 0.0000e+00 1.0000e+00
      -13  1    1    2    0    0 +4.9280819769e+00 +1.6969758695e+01 +1.7352818908e+01 2.4766715370e+01 1.0566000000e-01 0.0000e+00 1.0000e+00
       13  1    1    2    0    0 -5.3521851658e+01 -3.7449719224e+01 +1.3224937441e+02 1.4750246869e+02 1.0566000000e-01 0.0000e+00 1.0000e+00
      -13  1    1    2    0    0 +2.4062522783e+01 -8.5443220202e+01 +3.2328603761e+02 3.3525128211e+02 1.0566000000e-01 0.0000e+00 -1.0000e+00
       13  1    1    2    0    0 +2.4531246898e+01 +1.0592318073e+02 +4.3307584727e+02 4.4651562453e+02 1.0566000000e-01 0.0000e+00 -1.0000e+00
<mgrwt>
<rscale>  0 0.29902166E+03</rscale>
<asrwt>0</asrwt>
<pdfrwt beam="1">  1        2 0.23250001E+00 0.29902166E+03</pdfrwt>
<pdfrwt beam="2">  1       -2 0.60090019E-02 0.29902166E+03</pdfrwt>
<totfact> 0.19857964E+03</totfact>
</mgrwt>
</event>
<event>
 6      1 +1.8175624e-03 1.75233000e+02 7.81860800e-03 1.17249800e-01
       -2 -1    0    0    0  501 -0.0000000000e+00 +0.0000000000e+00 +2.6043163140e+01 2.6043163265e+01 2.5500000000e-03 0.0000e+00 1.0000e+00
        2 -1    0    0  501    0 +0.0000000000e+00 -0.0000000000e+00 -2.9476645503e+02 2.9476645504e+02 2.5500000000e-03 0.0000e+00 -1.0000e+00
      -13  1    1    2    0    0 +5.2621014307e-01 -3.2111358915e+01 -4.6222496049e+01 5.6284514509e+01 1.0566000000e-01 0.0000e+00 1.0000e+00
       13  1    1    2    0    0 +1.9071314815e+01 +2.0479876812e+00 -1.0233530987e+02 1.0411741503e+02 1.0566000000e-01 0.0000e+00 -1.0000e+00
      -13  1    1    2    0    0 -5.5852383437e+00 +6.6749730925e+01 -7.5073805418e+01 1.0061217069e+02 1.0566000000e-01 0.0000e+00 1.0000e+00
       13  1    1    2    0    0 -1.4012286614e+01 -3.6686359692e+01 -4.5091680553e+01 5.9795518082e+01 1.0566000000e-01 0.0000e+00 -1.0000e+00
<mgrwt>
<rscale>  0 0.17523300E+03</rscale>
<asrwt>0</asrwt>
<pdfrwt beam="1">  1        2 0.73691603E-01 0.17523300E+03</pdfrwt>
<pdfrwt beam="2">  1       -2 0.65107917E-02 0.17523300E+03</pdfrwt>
<totfact> 0.82682201E+03</totfact>
</mgrwt>
</event>
<event>
 6      1 +1.8175624e-03 2.92511500e+02 7.81860800e-03 1.08904500e-01
        1 -1    0    0  501    0 +0.0000000000e+00 +0.0000000000e+00 +6.2691075760e+02 6.2691075762e+02 5.0400000000e-03 0.0000e+00 -1.0000e+00
       -1 -1    0    0    0  501 -0.0000000000e+00 -0.0000000000e+00 -3.4120870460e+01 3.4120870833e+01 5.0400000000e-03 0.0000e+00 1.0000e+00
      -13  1    1    2    0    0 -3.2573692602e+00 +1.1501486301e+01 +1.8527778571e-01 1.1955757338e+01 1.0566000000e-01 0.0000e+00 1.0000e+00
       13  1    1    2    0    0 -6.4009616658e+01 +3.1327172613e+01 +2.2143241592e+02 2.3261760199e+02 1.0566000000e-01 0.0000e+00 -1.0000e+00
      -13  1    1    2    0    0 +9.7165942425e+01 +3.6711277533e+01 +2.0130633917e+02 2.2652415240e+02 1.0566000000e-01 0.0000e+00 1.0000e+00
       13  1    1    2    0    0 -2.9898956507e+01 -7.9539936447e+01 +1.6986585427e+02 1.8993411674e+02 1.0566000000e-01 0.0000e+00 -1.0000e+00
<mgrwt>
<rscale>  0 0.29251148E+03</rscale>
<asrwt>0</asrwt>
<pdfrwt beam="1">  1        1 0.15672769E+00 0.29251148E+03</pdfrwt>
<pdfrwt beam="2">  1       -1 0.85302174E-02 0.29251148E+03</pdfrwt>
<totfact> 0.12079578E+03</totfact>
</mgrwt>
</event>
<event>
 6      1 +1.8175624e-03 3.09378200e+02 7.81860800e-03 1.08064400e-01
       -2 -1    0    0    0  501 -0.0000000000e+00 +0.0000000000e+00 +2.2345127682e+01 2.2345127827e+01 2.5500000000e-03 0.0000e+00 -1.0000e+00
        2 -1    0    0  501    0 +0.0000000000e+00 -0.0000000000e+00 -1.0708696207e+03 1.0708696207e+03 2.5500000000e-03 0.0000e+00 1.0000e+00
      -13  1    1    2    0    0 -2.9664401842e+01 +9.8279036756e+01 -4.6061532961e+02 4.7191655919e+02 1.0566000000e-01 0.0000e+00 1.0000e+00
       13  1    1    2    0    0 +4.0332881713e+01 -8.8444152874e+01 -2.1351957810e+02 2.3460547930e+02 1.0566000000e-01 0.0000e+00 -1.0000e+00
      -13  1    1    2    0    0 -5.0534976856e+01 +1.0596738350e+01 -1.8434814122e+02 1.9144274100e+02 1.0566000000e-01 0.0000e+00 -1.0000e+00
       13  1    1    2    0    0 +3.9866496986e+01 -2.0431622232e+01 -1.9004144410e+02 1.9524996904e+02 1.0566000000e-01 0.0000e+00 1.0000e+00
<mgrwt>
<rscale>  0 0.30937821E+03</rscale>
<asrwt>0</asrwt>
<pdfrwt beam="1">  1        2 0.26771723E+00 0.30937821E+03</pdfrwt>
<pdfrwt beam="2">  1       -2 0.55862855E-02 0.30937821E+03</pdfrwt>
<totfact> 0.16774940E+03</totfact>
</mgrwt>
</event>
<event>
 6      1 +1.8175624e-03 3.42517500e+02 7.81860800e-03 1.06572900e-01
        1 -1    0    0  501    0 +0.0000000000e+00 +0.0000000000e+00 +2.4199823724e+02 2.4199823729e+02 5.0400000000e-03 0.0000e+00 -1.0000e+00
       -1 -1    0    0    0  501 -0.0000000000e+00 -0.0000000000e+00 -1.2119741194e+02 1.2119741205e+02 5.0400000000e-03 0.0000e+00 1.0000e+00
      -13  1    1    2    0    0 -2.5979273902e+01 +1.0393462112e+02 -1.1022420917e+00 1.0713801492e+02 1.0566000000e-01 0.0000e+00 1.0000e+00
       13  1    1    2    0    0 +3.4709401550e+00 +2.2638984455e+01 +9.3328124264e+01 9.6097455666e+01 1.0566000000e-01 0.0000e+00 -1.0000e+00
      -13  1    1    2    0    0 -3.4673860606e+01 -4.5000178568e+01 +1.8905444710e+01 5.9872528627e+01 1.0566000000e-01 0.0000e+00 1.0000e+00
       13  1    1    2    0    0 +5.7182194353e+01 -8.1573427002e+01 +9.6694984146e+00 1.0008765013e+02 1.0566000000e-01 0.0000e+00 -1.0000e+00
<mgrwt>
<rscale>  0 0.34251750E+03</rscale>
<asrwt>0</asrwt>
<pdfrwt beam="1">  1        1 0.60499559E-01 0.34251750E+03</pdfrwt>
<pdfrwt beam="2">  1       -1 0.30299353E-01 0.34251750E+03</pdfrwt>
<totfact> 0.62377003E+02</totfact>
</mgrwt>
</event>
<event>
 6      1 +1.8175624e-03 3.48900500e+02 7.81860800e-03 1.06306700e-01
        1 -1    0    0  501    0 +0.0000000000e+00 +0.0000000000e+00 +6.3885244854e+02 6.3885244856e+02 5.0400000000e-03 0.0000e+00 -1.0000e+00
       -1 -1    0    0    0  501 -0.0000000000e+00 -0.0000000000e+00 -4.7636812127e+01 4.7636812394e+01 5.0400000000e-03 0.0000e+00 1.0000e+00
      -13  1    1    2    0    0 +1.1565957638e+01 -7.4579228026e+01 +3.1052353137e+02 3.1956330723e+02 1.0566000000e-01 0.0000e+00 -1.0000e+00
       13  1    1    2    0    0 -4.9383372400e+01 -4.0746962003e+00 +1.1630428766e+02 1.2642001072e+02 1.0566000000e-01 0.0000e+00 -1.0000e+00
      -13  1    1    2    0    0 +7.2651365169e+01 +1.0786134560e+02 +1.2429129254e+02 1.7989059815e+02 1.0566000000e-01 0.0000e+00 1.0000e+00
       13  1    1    2    0    0 -3.4833950407e+01 -2.9207421371e+01 +4.0096524841e+01 6.0615344860e+01 1.0566000000e-01 0.0000e+00 1.0000e+00
<mgrwt>
<rscale>  0 0.34890053E+03</rscale>
<asrwt>0</asrwt>
<pdfrwt beam="1">  1        1 0.15971311E+00 0.34890053E+03</pdfrwt>
<pdfrwt beam="2">  1       -1 0.11909203E-01 0.34890053E+03</pdfrwt>
<totfact> 0.69295495E+02</totfact>
</mgrwt>
</event>
<event>
 6      1 +1.8175624e-03 4.00707900e+02 7.81860800e-03 1.04353500e-01
       -1 -1    0    0    0  501 -0.0000000000e+00 +0.0000000000e+00 +3.7549526966e+01 3.7549527304e+01 5.0400000000e-03 0.0000e+00 1.0000e+00
        1 -1    0    0  501    0 +0.0000000000e+00 -0.0000000000e+00 -1.0690335204e+03 1.0690335204e+03 5.0400000000e-03 0.0000e+00 -1.0000e+00
      -13  1    1    2    0    0 +4.8103279828e+01 -9.7739669032e+01 -1.4880893698e+02 1.8442092973e+02 1.0566000000e-01 0.0000e+00 1.0000e+00
       13  1    1    2    0    0 -6.4615103240e+01 +1.2135310380e+02 -6.7523037757e+02 6.8908472725e+02 1.0566000000e-01 0.0000e+00 -1.0000e+00
      -13  1    1    2    0    0 +2.5572535571e+01 +3.1790880298e+01 -1.3729538605e+02 1.4322935747e+02 1.0566000000e-01 0.0000e+00 1.0000e+00
       13  1    1    2    0    0 -9.0607121587e+00 -5.5404315070e+01 -7.0149292822e+01 8.9848033260e+01 1.0566000000e-01 0.0000e+00 -1.0000e+00
<mgrwt>
<rscale>  0 0.40070789E+03</rscale>
<asrwt>0</asrwt>
<pdfrwt beam="1">  1        1 0.26725828E+00 0.40070789E+03</pdfrwt>
<pdfrwt beam="2">  1       -1 0.93873853E-02 0.40070789E+03</pdfrwt>
<totfact> 0.33073524E+02</totfact>
</mgrwt>
</event>
<event>
 6      1 +1.8175624e-03 1.39460600e+02 7.81860800e-03 1.21405700e-01
        2 -1    0    0  501    0 +0.0000000000e+00 +0.0000000000e+00 +2.9924416037e+02 2.9924416038e+02 2.5500000000e-03 0.0000e+00 -1.0000e+00
       -2 -1    0    0    0  501 -0.0000000000e+00 -0.0000000000e+00 -1.6248659442e+01 1.6248659642e+01 2.5500000000e-03 0.0000e+00 1.0000e+00
      -13  1    1    2    0    0 +1.8333121854e+01 -6.2764764556e+00 +6.2169596612e+01 6.5119639284e+01 1.0566000000e-01 0.0000e+00 1.0000e+00
       13  1    1    2    0    0 -1.1597481037e+01 -4.7644056980e+01 +1.4383866596e+02 1.5196720278e+02 1.0566000000e-01 0.0000e+00 -1.0000e+00
      -13  1    1    2    0    0 -4.2455059792e+00 +4.2782757735e+01 +3.6679628481e+01 5.6513670824e+01 1.0566000000e-01 0.0000e+00 1.0000e+00
       13  1    1    2    0    0 -2.4901348374e+00 +1.1137775701e+01 +4.0307609878e+01 4.1892307136e+01 1.0566000000e-01 0.0000e+00 -1.0000e+00
<mgrwt>
<rscale>  0 0.13946063E+03</rscale>
<asrwt>0</asrwt>
<pdfrwt beam="1">  1        2 0.74811041E-01 0.13946063E+03</pdfrwt>
<pdfrwt beam="2">  1       -2 0.40621648E-02 0.13946063E+03</pdfrwt>
<totfact> 0.16314695E+04</totfact>
</mgrwt>
</event>
<event>
 7      1 +1.8175624e-03 9.58034400e+01 7.81860800e-03 1.28937700e-01
       -2 -1    0    0    0  501 -0.0000000000e+00 +0.0000000000e+00 +1.8654530216e+02 1.8654530218e+02 2.5500000000e-03 0.0000e+00 1.0000e+00
        2 -1    0    0  501    0 +0.0000000000e+00 -0.0000000000e+00 -1.2300361148e+01 1.2300361413e+01 2.5500000000e-03 0.0000e+00 -1.0000e+00
       23  2    1    2    0    0 +1.7763568394e-15 +0.0000000000e+00 +1.7424494101e+02 1.9884566359e+02 9.5803436579e+01 0.0000e+00 0.0000e+00
      -13  1    3    3    0    0 -1.0845370272e+01 +2.8265423147e+00 +3.5444239931e+01 3.7174140288e+01 1.0566000000e-01 0.0000e+00 -1.0000e+00
       13  1    3    3    0    0 -6.4439480935e+00 -3.0672880426e+01 +4.6141920956e+01 5.5780266172e+01 1.0566000000e-01 0.0000e+00 -1.0000e+00
      -13  1    3    3    0    0 +1.7075550831e+00 +2.1511994292e+01 +8.4470841507e+01 8.7183805100e+01 1.0566000000e-01 0.0000e+00 1.0000e+00
       13  1    3    3    0    0 +1.5581763283e+01 +6.3343438189e+00 +8.1879386173e+00 1.8707452030e+01 1.0566000000e-01 0.0000e+00 1.0000e+00
<mgrwt>
<rscale>  0 0.95803437E+02</rscale>
<asrwt>0</asrwt>
<pdfrwt beam="1">  1        2 0.30750904E-02 0.95803437E+02</pdfrwt>
<pdfrwt beam="2">  1       -2 0.46636325E-01 0.95803437E+02</pdfrwt>
<totfact> 0.12014545E+04</totfact>
</mgrwt>
</event>
<event>
 6      1 +1.8175624e-03 4.35812500e+02 7.81860800e-03 1.03203900e-01
       -2 -1    0    0    0  501 -0.0000000000e+00 +0.0000000000e+00 +7.1368810122e+01 7.1368810167e+01 2.5500000000e-03 0.0000e+00 1.0000e+00
        2 -1    0    0  501    0 +0.0000000000e+00 -0.0000000000e+00 -6.6532050683e+02 6.6532050684e+02 2.5500000000e-03 0.0000e+00 -1.0000e+00
      -13  1    1    2    0    0 +1.4506746190e+00 +2.0310867481e+01 +4.3420412233e+00 2.0820669555e+01 1.0566000000e-01 0.0000e+00 1.0000e+00
       13  1    1    2    0    0 -1.9801175730e+01 -1.3041063764e+01 -5.5498716187e+01 6.0351259861e+01 1.0566000000e-01 0.0000e+00 -1.0000e+00
      -13  1    1    2    0    0 +1.2611814017e+02 -1.3074663653e+02 -3.9524028830e+02 4.3498892504e+02 1.0566000000e-01 0.0000e+00 1.0000e+00
       13  1    1    2    0    0 -1.0776763906e+02 +1.2347683281e+02 -1.4755473344e+02 2.2052846255e+02 1.0566000000e-01 0.0000e+00 -1.0000e+00
<mgrwt>
<rscale>  0 0.43581250E+03</rscale>
<asrwt>0</asrwt>
<pdfrwt beam="1">  1        2 0.16633011E+00 0.43581250E+03</pdfrwt>
<pdfrwt beam="2">  1       -2 0.17842205E-01 0.43581250E+03</pdfrwt>
<totfact> 0.59491556E+02</totfact>
</mgrwt>
</event>
<event>
 6      1 +1.8175624e-03 2.54788600e+02 7.81860800e-03 1.11031500e-01
       -2 -1    0    0    0  501 -0.0000000000e+00 +0.0000000000e+00 +4.4543408141e+01 4.4543408214e+01 2.5500000000e-03 0.0000e+00 1.0000e+00
        2 -1    0    0  501    0 +0.0000000000e+00 -0.0000000000e+00 -3.6434807149e+02 3.6434807150e+02 2.5500000000e-03 0.0000e+00 -1.0000e+00
      -13  1    1    2    0    0 -1.4919575100e+01 -2.6107098565e+01 -3.2286082767e+01 4.4120025172e+01 1.0566000000e-01 0.0000e+00 1.0000e+00
       13  1    1    2    0    0 +3.3199018797e+01 -8.8953235699e+01 -9.6002393352e+01 1.3502341902e+02 1.0566000000e-01 0.0000e+00 -1.0000e+00
      -13  1    1    2    0    0 +1.0738125820e+01 +1.2643663273e+01 -1.0139963152e+01 1.9442211393e+01 1.0566000000e-01 0.0000e+00 1.0000e+00
       13  1    1    2    0    0 -2.9017569516e+01 +1.0241667099e+02 -1.8137622408e+02 2.1030582413e+02 1.0566000000e-01 0.0000e+00 -1.0000e+00
<mgrwt>
<rscale>  0 0.25478858E+03</rscale>
<asrwt>0</asrwt>
<pdfrwt beam="1">  1        2 0.91087009E-01 0.25478858E+03</pdfrwt>
<pdfrwt beam="2">  1       -2 0.11135853E-01 0.25478858E+03</pdfrwt>
<totfact> 0.28477970E+03</totfact>
</mgrwt>
</event>
<event>
 6      1 +1.8175624e-03 1.73866100e+02 7.81860800e-03 1.17387500e-01
       -1 -1    0    0    0  501 -0.0000000000e+00 +0.0000000000e+00 +1.9126435821e+01 1.9126436486e+01 5.0400000000e-03 0.0000e+00 1.0000e+00
        1 -1    0    0  501    0 +0.0000000000e+00 -0.0000000000e+00 -3.9512601863e+02 3.9512601867e+02 5.0400000000e-03 0.0000e+00 -1.0000e+00
      -13  1    1    2    0    0 +1.8865546448e+01 -2.2786181707e+01 -7.4093861587e+01 7.9781140682e+01 1.0566000000e-01 0.0000e+00 -1.0000e+00
       13  1    1    2    0    0 +4.0921901893e+01 +5.0546471658e+01 -1.0944617895e+02 1.2731074229e+02 1.0566000000e-01 0.0000e+00 1.0000e+00
      -13  1    1    2    0    0 -3.1508208204e+01 -3.3458405459e+01 -1.3918999445e+02 1.4658136920e+02 1.0566000000e-01 0.0000e+00 -1.0000e+00
       13  1    1    2    0    0 -2.8279240137e+01 +5.6981155071e+00 -5.3269547825e+01 6.0579202971e+01 1.0566000000e-01 0.0000e+00 1.0000e+00
<mgrwt>
<rscale>  0 0.17386607E+03</rscale>
<asrwt>0</asrwt>
<pdfrwt beam="1">  1        1 0.98781478E-01 0.17386607E+03</pdfrwt>
<pdfrwt beam="2">  1       -1 0.47816103E-02 0.17386607E+03</pdfrwt>
<totfact> 0.58781433E+03</totfact>
</mgrwt>
</event>
<event>
 6      1 +1.8175624e-03 3.02846700e+02 7.81860800e-03 1.08382600e-01
        2 -1    0    0  501    0 +0.0000000000e+00 +0.0000000000e+00 +2.0094580212e+02 2.0094580214e+02 2.5500000000e-03 0.0000e+00 1.0000e+00
       -2 -1    0    0    0  501 -0.0000000000e+00 -0.0000000000e+00 -1.1410554557e+02 1.1410554560e+02 2.5500000000e-03 0.0000e+00 -1.0000e+00
      -13  1    1    2    0    0 +4.4131576256e+01 -4.3087475777e+00 +9.2438656324e+00 4.5294829113e+01 1.0566000000e-01 0.0000e+00 -1.0000e+00
       13  1    1    2    0    0 -4.4187172799e+01 +7.3153812396e+01 +8.3218498543e+00 8.5867635679e+01 1.0566000000e-01 0.0000e+00 1.0000e+00
      -13  1    1    2    0    0 +2.7017661746e+01 -1.5225260337e+01 +1.0806528516e+02 1.1242721921e+02 1.0566000000e-01 0.0000e+00 1.0000e+00
       13  1    1    2    0    0 -2.6962065204e+01 -5.3619804482e+01 -3.8790744097e+01 7.1461663739e+01 1.0566000000e-01 0.0000e+00 -1.0000e+00
<mgrwt>
<rscale>  0 0.30284670E+03</rscale>
<asrwt>0</asrwt>
<pdfrwt beam="1">  1        2 0.50236450E-01 0.30284670E+03</pdfrwt>
<pdfrwt beam="2">  1       -2 0.28526387E-01 0.30284670E+03</pdfrwt>
<totfact> 0.11198774E+03</totfact>
</mgrwt>
</event>
<event>
 6      1 +1.8175624e-03 2.15052300e+02 7.81860800e-03 1.13762600e-01
        1 -1    0    0  501    0 +0.0000000000e+00 +0.0000000000e+00 +1.5669474763e+02 1.5669474771e+02 5.0400000000e-03 0.0000e+00 -1.0000e+00
       -1 -1    0    0    0  501 -0.0000000000e+00 -0.0000000000e+00 -7.3785943402e+01 7.3785943574e+01 5.0400000000e-03 0.0000e+00 1.0000e+00
      -13  1    1    2    0    0 -4.1886364760e+01 +2.3549435262e+01 -3.4690217532e+01 5.9266059516e+01 1.0566000000e-01 0.0000e+00 1.0000e+00
       13  1    1    2    0    0 +1.9052592887e+01 -9.4863401817e+00 +1.5298726761e+01 2.6211717805e+01 1.0566000000e-01 0.0000e+00 -1.0000e+00
      -13  1    1    2    0    0 -2.4710439853e+01 -3.6702390710e+01 +7.1251479232e+01 8.3871662547e+01 1.0566000000e-01 0.0000e+00 1.0000e+00
       13  1    1    2    0    0 +4.7544211726e+01 +2.2639295630e+01 +3.1048815768e+01 6.1131251418e+01 1.0566000000e-01 0.0000e+00 -1.0000e+00
<mgrwt>
<rscale>  0 0.21505227E+03</rscale>
<asrwt>0</asrwt>
<pdfrwt beam="1">  1        1 0.39173687E-01 0.21505227E+03</pdfrwt>
<pdfrwt beam="2">  1       -1 0.18446486E-01 0.21505227E+03</pdfrwt>
<totfact> 0.24565527E+03</totfact>
</mgrwt>
</event>
<event>
 6      1 +1.8175624e-03 4.02949500e+02 7.81860800e-03 1.04276300e-01
       -2 -1    0    0    0  501 -0.0000000000e+00 +0.0000000000e+00 +2.7832758706e+02 2.7832758707e+02 2.5500000000e-03 0.0000e+00 1.0000e+00
        2 -1    0    0  501    0 +0.0000000000e+00 -0.0000000000e+00 -1.4584278305e+02 1.4584278308e+02 2.5500000000e-03 0.0000e+00 -1.0000e+00
      -13  1    1    2    0    0 +5.2351648677e+01 -2.8974475117e+01 +3.4267363670e+01 6.8952728042e+01 1.0566000000e-01 0.0000e+00 -1.0000e+00
       13  1    1    2    0    0 -8.1367161243e+01 +9.0292175908e+01 -8.3249526369e+01 1.4732205118e+02 1.0566000000e-01 0.0000e+00 -1.0000e+00
      -13  1    1    2    0    0 +3.0861469705e+01 -6.3826275538e-01 +2.3902583114e+01 3.9040777852e+01 1.0566000000e-01 0.0000e+00 1.0000e+00
       13  1    1    2    0    0 -1.8459571393e+00 -6.0679438036e+01 +1.5756438359e+02 1.6885481308e+02 1.0566000000e-01 0.0000e+00 1.0000e+00
<mgrwt>
<rscale>  0 0.40294948E+03</rscale>
<asrwt>0</asrwt>
<pdfrwt beam="1">  1        2 0.36460696E-01 0.40294948E+03</pdfrwt>
<pdfrwt beam="2">  1       -2 0.69581896E-01 0.40294948E+03</pdfrwt>
<totfact> 0.27368235E+02</totfact>
</mgrwt>
</event>
<event>
 6      1 +1.8175624e-03 1.76598600e+02 7.81860800e-03 1.17113600e-01
        1 -1    0    0  501    0 +0.0000000000e+00 +0.0000000000e+00 +9.9704831789e+01 9.9704831916e+01 5.0400000000e-03 0.0000e+00 -1.0000e+00
       -1 -1    0    0    0  501 -0.0000000000e+00 -0.0000000000e+00 -7.8198510192e+01 7.8198510354e+01 5.0400000000e-03 0.0000e+00 1.0000e+00
      -13  1    1    2    0    0 -4.1274969833e+01 +2.1846112417e+00 +1.1830499938e+01 4.2992645346e+01 1.0566000000e-01 0.0000e+00 1.0000e+00
       13  1    1    2    0    0 +2.5397480551e+01 +5.1071424968e+01 -7.1866325997e+00 5.7488966931e+01 1.0566000000e-01 0.0000e+00 -1.0000e+00
      -13  1    1    2    0    0 +3.4233166841e+01 -4.0051753840e+01 +8.8157122538e+00 5.3420788503e+01 1.0566000000e-01 0.0000e+00 1.0000e+00
       13  1    1    2    0    0 -1.8355677559e+01 -1.3204282370e+01 +8.0467420042e+00 2.4000941491e+01 1.0566000000e-01 0.0000e+00 -1.0000e+00
<mgrwt>
<rscale>  0 0.17659863E+03</rscale>
<asrwt>0</asrwt>
<pdfrwt beam="1">  1        1 0.24926208E-01 0.17659863E+03</pdfrwt>
<pdfrwt beam="2">  1       -1 0.19549628E-01 0.17659863E+03</pdfrwt>
<totfact> 0.39165276E+03</totfact>
</mgrwt>
</event>
<event>
 6      1 +1.8175624e-03 3.96099000e+02 7.81860800e-03 1.04513900e-01
       -2 -1    0    0    0  501 -0.0000000000e+00 +0.0000000000e+00 +2.5515191966e+02 2.5515191967e+02 2.5500000000e-03 0.0000e+00 -1.0000e+00
        2 -1    0    0  501    0 +0.0000000000e+00 -0.0000000000e+00 -1.5372648917e+02 1.5372648920e+02 2.5500000000e-03 0.0000e+00 1.0000e+00
      -13  1    1    2    0    0 -4.6815172981e+01 +2.9276099646e+01 +3.6655047241e+01 6.6274837488e+01 1.0566000000e-01 0.0000e+00 -1.0000e+00
       13  1    1    2    0    0 +4.2990082605e+01 +1.3977833805e+02 +7.1716813199e+01 1.6287861569e+02 1.0566000000e-01 0.0000e+00 1.0000e+00
      -13  1    1    2    0    0 -1.2084110049e+01 -1.2387561290e+02 +1.7935820898e+01 1.2574934602e+02 1.0566000000e-01 0.0000e+00 -1.0000e+00
       13  1    1    2    0    0 +1.5909200426e+01 -4.5178824791e+01 -2.4882250855e+01 5.3975609671e+01 1.0566000000e-01 0.0000e+00 1.0000e+00
<mgrwt>
<rscale>  0 0.39609902E+03</rscale>
<asrwt>0</asrwt>
<pdfrwt beam="1">  1        2 0.38431623E-01 0.39609902E+03</pdfrwt>
<pdfrwt beam="2">  1       -2 0.63787979E-01 0.39609902E+03</pdfrwt>
<totfact> 0.31112810E+02</totfact>
</mgrwt>
</event>
<event>
 6      1 +1.8175624e-03 3.60387900e+02 7.81860800e-03 1.05843000e-01
       -1 -1    0    0    0  501 -0.0000000000e+00 +0.0000000000e+00 +1.1533282074e+02 1.1533282085e+02 5.0400000000e-03 0.0000e+00 1.0000e+00
        1 -1    0    0  501    0 +0.0000000000e+00 -0.0000000000e+00 -2.8153175157e+02 2.8153175161e+02 5.0400000000e-03 0.0000e+00 -1.0000e+00
      -13  1    1    2    0    0 -3.9045281381e+01 +7.3034266870e+01 -2.1523615007e+01 8.5567606618e+01 1.0566000000e-01 0.0000e+00 1.0000e+00
       13  1    1    2    0    0 +6.2196867143e+01 -2.3570982714e+01 -4.6075150035e+01 8.0913361834e+01 1.0566000000e-01 0.0000e+00 -1.0000e+00
      -13  1    1    2    0    0 +3.6855091792e+01 -1.1740145323e+01 +5.1489383032e+01 6.4399507236e+01 1.0566000000e-01 0.0000e+00 1.0000e+00
       13  1    1    2    0    0 -6.0006677555e+01 -3.7723138833e+01 -1.5008954882e+02 1.6598409678e+02 1.0566000000e-01 0.0000e+00 -1.0000e+00
<mgrwt>
<rscale>  0 0.36038785E+03</rscale>
<asrwt>0</asrwt>
<pdfrwt beam="1">  1        1 0.70382937E-01 0.36038785E+03</pdfrwt>
<pdfrwt beam="2">  1       -1 0.28833206E-01 0.36038785E+03</pdfrwt>
<totfact> 0.55678220E+02</totfact>
</mgrwt>
</event>
<event>
 6      1 +1.8175624e-03 1.77019100e+02 7.81860800e-03 1.17072000e-01
        2 -1    0    0  501    0 +0.0000000000e+00 +0.0000000000e+00 +3.2851707710e+02 3.2851707711e+02 2.5500000000e-03 0.0000e+00 -1.0000e+00
       -2 -1    0    0    0  501 -0.0000000000e+00 -0.0000000000e+00 -2.3846382538e+01 2.3846382674e+01 2.5500000000e-03 0.0000e+00 1.0000e+00
      -13  1    1    2    0    0 -6.8130783225e+01 -3.6398623160e+01 +1.6823328913e+02 1.8511918898e+02 1.0566000000e-01 0.0000e+00 1.0000e+00
       13  1    1    2    0    0 +3.3106914582e+01 -2.2955716955e+00 +6.1402684432e+01 6.9797122161e+01 1.0566000000e-01 0.0000e+00 -1.0000e+00
      -13  1    1    2    0    0 +2.7802301908e+01 +2.4874267415e+01 +2.4672886522e+01 4.4726498456e+01 1.0566000000e-01 0.0000e+00 1.0000e+00
       13  1    1    2    0    0 +7.2215667358e+00 +1.3819927441e+01 +5.0361834472e+01 5.2720650186e+01 1.0566000000e-01 0.0000e+00 -1.0000e+00
<mgrwt>
<rscale>  0 0.17701914E+03</rscale>
<asrwt>0</asrwt>
<pdfrwt beam="1">  1        2 0.82129267E-01 0.17701914E+03</pdfrwt>
<pdfrwt beam="2">  1       -2 0.59615958E-02 0.17701914E+03</pdfrwt>
<totfact> 0.83924868E+03</totfact>
</mgrwt>
</event>
<event>
 6      1 +1.8175624e-03 4.29227500e+02 7.81860800e-03 1.03410400e-01
        2 -1    0    0  501    0 +0.0000000000e+00 +0.0000000000e+00 +3.3919583142e+02 3.3919583143e+02 2.5500000000e-03 0.0000e+00 -1.0000e+00
       -2 -1    0    0    0  501 -0.0000000000e+00 -0.0000000000e+00 -1.3578896532e+02 1.3578896535e+02 2.5500000000e-03 0.0000e+00 1.0000e+00
      -13  1    1    2    0    0 -7.4228218550e+01 +7.2978393744e+01 -6.4106284696e+01 1.2225097662e+02 1.0566000000e-01 0.0000e+00 1.0000e+00
       13  1    1    2    0    0 -2.5029241462e+01 -2.8798330440e+01 +7.9867333309e+00 3.8982122026e+01 1.0566000000e-01 0.0000e+00 1.0000e+00
      -13  1    1    2    0    0 +5.4435816748e+00 -3.3038763038e+01 +1.9844977374e+02 2.0125485412e+02 1.0566000000e-01 0.0000e+00 -1.0000e+00
       13  1    1    2    0    0 +9.3813878338e+01 -1.1141300266e+01 +6.1076643727e+01 1.1249684402e+02 1.0566000000e-01 0.0000e+00 -1.0000e+00
<mgrwt>
<rscale>  0 0.42922745E+03</rscale>
<asrwt>0</asrwt>
<pdfrwt beam="1">  1        2 0.84798957E-01 0.42922745E+03</pdfrwt>
<pdfrwt beam="2">  1       -2 0.33947242E-01 0.42922745E+03</pdfrwt>
<totfact> 0.45277146E+02</totfact>
</mgrwt>
</event>
<event>
 6      1 +1.8175624e-03 3.22994800e+02 7.81860800e-03 1.07427900e-01
        2 -1    0    0  501    0 +0.0000000000e+00 +0.0000000000e+00 +3.8108199239e+02 3.8108199239e+02 2.5500000000e-03 0.0000e+00 -1.0000e+00
       -2 -1    0    0    0  501 -0.0000000000e+00 -0.0000000000e+00 -6.8440432516e+01 6.8440432563e+01 2.5500000000e-03 0.0000e+00 1.0000e+00
      -13  1    1    2    0    0 +1.1897222052e+01 +2.2691147757e+01 +7.5273079342e+00 2.6703999847e+01 1.0566000000e-01 0.0000e+00 1.0000e+00
       13  1    1    2    0    0 +4.5006728047e+01 +7.8780148394e+01 +1.6645462987e+02 1.8957603308e+02 1.0566000000e-01 0.0000e+00 -1.0000e+00
      -13  1    1    2    0    0 +2.4244996873e+01 -5.9727646361e+01 -3.2283342688e+00 6.4541807531e+01 1.0566000000e-01 0.0000e+00 1.0000e+00
       13  1    1    2    0    0 -8.1148946972e+01 -4.1743649789e+01 +1.4188795634e+02 1.6870058450e+02 1.0566000000e-01 0.0000e+00 -1.0000e+00
<mgrwt>
<rscale>  0 0.32299484E+03</rscale>
<asrwt>0</asrwt>
<pdfrwt beam="1">  1        2 0.95270496E-01 0.32299484E+03</pdfrwt>
<pdfrwt beam="2">  1       -2 0.17110109E-01 0.32299484E+03</pdfrwt>
<totfact> 0.13360872E+03</totfact>
</mgrwt>
</event>
<event>
 6      1 +1.8175624e-03 3.82333700e+02 7.81860800e-03 1.05007500e-01
       -2 -1    0    0    0  501 -0.0000000000e+00 +0.0000000000e+00 +9.8756357736e+01 9.8756357769e+01 2.5500000000e-03 0.0000e+00 1.0000e+00
        2 -1    0    0  501    0 +0.0000000000e+00 -0.0000000000e+00 -3.7004972160e+02 3.7004972161e+02 2.5500000000e-03 0.0000e+00 -1.0000e+00
      -13  1    1    2    0    0 +9.0416285924e+01 +1.2197419268e+01 +8.2653642517e+00 9.1609001781e+01 1.0566000000e-01 0.0000e+00 1.0000e+00
       13  1    1    2    0    0 +2.3155006592e+01 +6.2512837744e+01 -2.9857071572e+01 7.3044268084e+01 1.0566000000e-01 0.0000e+00 -1.0000e+00
      -13  1    1    2    0    0 -3.3989538927e+01 -2.1641365394e+01 -4.0049139985e+00 4.0493060550e+01 1.0566000000e-01 0.0000e+00 1.0000e+00
       13  1    1    2    0    0 -7.9581753589e+01 -5.3068891619e+01 -2.4569674255e+02 2.6365974897e+02 1.0566000000e-01 0.0000e+00 -1.0000e+00
<mgrwt>
<rscale>  0 0.38233369E+03</rscale>
<asrwt>0</asrwt>
<pdfrwt beam="1">  1        2 0.92512427E-01 0.38233369E+03</pdfrwt>
<pdfrwt beam="2">  1       -2 0.24689090E-01 0.38233369E+03</pdfrwt>
<totfact> 0.73248782E+02</totfact>
</mgrwt>
</event>
<event>
 6      1 +1.8175624e-03 2.87471700e+02 7.81860800e-03 1.09167700e-01
       -1 -1    0    0    0  501 -0.0000000000e+00 +0.0000000000e+00 +3.1423780395e+01 3.1423780800e+01 5.0400000000e-03 0.0000e+00 1.0000e+00
        1 -1    0    0  501    0 +0.0000000000e+00 -0.0000000000e+00 -6.5746348741e+02 6.5746348743e+02 5.0400000000e-03 0.0000e+00 -1.0000e+00
      -13  1    1    2    0    0 -4.6174732611e+01 -1.5577849146e+00 -4.2895735315e+01 6.3044332797e+01 1.0566000000e-01 0.0000e+00 1.0000e+00
       13  1    1    2    0    0 -2.5050793973e+01 +7.5787854794e+01 -2.5291410856e+02 2.6521104555e+02 1.0566000000e-01 0.0000e+00 -1.0000e+00
      -13  1    1    2    0    0 -1.7589201708e+01 -3.2746360375e+01 -1.5938864410e+02 1.6366568109e+02 1.0566000000e-01 0.0000e+00 1.0000e+00
       13  1    1    2    0    0 +8.8814728292e+01 -4.1483709505e+01 -1.7084121904e+02 1.9696620878e+02 1.0566000000e-01 0.0000e+00 -1.0000e+00
<mgrwt>
<rscale>  0 0.28747166E+03</rscale>
<asrwt>0</asrwt>
<pdfrwt beam="1">  1        1 0.16436583E+00 0.28747166E+03</pdfrwt>
<pdfrwt beam="2">  1       -1 0.78559473E-02 0.28747166E+03</pdfrwt>
<totfact> 0.12600585E+03</totfact>
</mgrwt>
</event>
<event>
 6      1 +1.8175624e-03 2.13805000e+02 7.81860800e-03 1.13858800e-01
       -1 -1    0    0    0  501 -0.0000000000e+00 +0.0000000000e+00 +2.8488674483e+01 2.8488674929e+01 5.0400000000e-03 0.0000e+00 1.0000e+00
        1 -1    0    0  501    0 +0.0000000000e+00 -0.0000000000e+00 -4.0114704924e+02 4.0114704927e+02 5.0400000000e-03 0.0000e+00 -1.0000e+00
      -13  1    1    2    0    0 -4.3441570472e+01 +2.3040404080e+01 -1.6319450617e+01 5.1810866599e+01 1.0566000000e-01 0.0000e+00 1.0000e+00
       13  1    1    2    0    0 +3.8277742748e+01 +2.5342220530e+01 -1.4933710993e+02 1.5623379051e+02 1.0566000000e-01 0.0000e+00 1.0000e+00
      -13  1    1    2    0    0 +2.0081705737e+01 -5.7933237650e+01 -1.5737438586e+02 1.6889713858e+02 1.0566000000e-01 0.0000e+00 -1.0000e+00
       13  1    1    2    0    0 -1.4917878014e+01 +9.5506130401e+00 -4.9627428356e+01 5.2693928522e+01 1.0566000000e-01 0.0000e+00 -1.0000e+00
<mgrwt>
<rscale>  0 0.21380503E+03</rscale>
<asrwt>0</asrwt>
<pdfrwt beam="1">  1        1 0.10028674E+00 0.21380503E+03</pdfrwt>
<pdfrwt beam="2">  1       -1 0.71221700E-02 0.21380503E+03</pdfrwt>
<totfact> 0.31884517E+03</totfact>
</mgrwt>
</event>
<event>
 6      1 +1.8175624e-03 3.14307100e+02 7.81860800e-03 1.07830000e-01
        2 -1    0    0  501    0 +0.0000000000e+00 +0.0000000000e+00 +5.3763823849e+02 5.3763823850e+02 2.5500000000e-03 0.0000e+00 -1.0000e+00
       -2 -1    0    0    0  501 -0.0000000000e+00 -0.0000000000e+00 -4.5936549413e+01 4.5936549484e+01 2.5500000000e-03 0.0000e+00 1.0000e+00
      -13  1    1    2    0    0 +1.9216429194e+00 +1.0437998452e+02 +1.5136713449e+02 1.8387738972e+02 1.0566000000e-01 0.0000e+00 1.0000e+00
       13  1    1    2    0    0 +7.5310154752e+00 -1.4195206077e+01 -5.8835377807e+00 1.7112780327e+01 1.0566000000e-01 0.0000e+00 -1.0000e+00
      -13  1    1    2    0    0 -4.6882689917e+01 -8.8953774950e+01 +1.3643732934e+02 1.6948721690e+02 1.0566000000e-01 0.0000e+00 1.0000e+00
       13  1    1    2    0    0 +3.7430031522e+01 -1.2310034909e+00 +2.0978076303e+02 2.1309740104e+02 1.0566000000e-01 0.0000e+00 -1.0000e+00
<mgrwt>
<rscale>  0 0.31430715E+03</rscale>
<asrwt>0</asrwt>
<pdfrwt beam="1">  1        2 0.13440956E+00 0.31430715E+03</pdfrwt>
<pdfrwt beam="2">  1       -2 0.11484137E-01 0.31430715E+03</pdfrwt>
<totfact> 0.16790123E+03</totfact>
</mgrwt>
</event>
<event>
 6      1 +1.8175624e-03 1.59003100e+02 7.81860800e-03 1.18982700e-01
        2 -1    0    0  501    0 +0.0000000000e+00 +0.0000000000e+00 +6.4141969583e+01 6.4141969634e+01 2.5500000000e-03 0.0000e+00 -1.0000e+00
       -2 -1    0    0    0  501 -0.0000000000e+00 -0.0000000000e+00 -9.8539166308e+01 9.8539166341e+01 2.5500000000e-03 0.0000e+00 1.0000e+00
      -13  1    1    2    0    0 +2.2934861298e+01 -5.2691022026e+00 -9.3469150132e+00 2.5320886341e+01 1.0566000000e-01 0.0000e+00 1.0000e+00
       13  1    1    2    0    0 -9.3933679023e-01 +4.3876258547e+01 -1.5766117995e+01 4.6632500023e+01 1.0566000000e-01 0.0000e+00 1.0000e+00
      -13  1    1    2    0    0 +1.2399956876e+01 -4.5074152760e+01 +1.3870654670e+01 4.8763145946e+01 1.0566000000e-01 0.0000e+00 -1.0000e+00
       13  1    1    2    0    0 -3.4395481384e+01 +6.4669964150e+00 -2.3154818387e+01 4.1964603666e+01 1.0566000000e-01 0.0000e+00 -1.0000e+00
<mgrwt>
<rscale>  0 0.15900310E+03</rscale>
<asrwt>0</asrwt>
<pdfrwt beam="1">  1        2 0.16035493E-01 0.15900310E+03</pdfrwt>
<pdfrwt beam="2">  1       -2 0.24634791E-01 0.15900310E+03</pdfrwt>
<totfact> 0.50552577E+03</totfact>
</mgrwt>
</event>
<event>
 6      1 +1.8175624e-03 5.20683700e+02 7.81860800e-03 1.00851700e-01
       -1 -1    0    0    0  501 -0.0000000000e+00 +0.0000000000e+00 +6.6238369679e+01 6.6238369871e+01 5.0400000000e-03 0.0000e+00 1.0000e+00
        1 -1    0    0  501    0 +0.0000000000e+00 -0.0000000000e+00 -1.0232419213e+03 1.0232419213e+03 5.0400000000e-03 0.0000e+00 -1.0000e+00
      -13  1    1    2    0    0 -4.0228196920e+01 +1.6834771244e+02 -3.5476949052e+02 3.9474126042e+02 1.0566000000e-01 0.0000e+00 1.0000e+00
       13  1    1    2    0    0 -6.5824043260e+01 -1.0280710039e+01 -1.6693869096e+01 6.8681832383e+01 1.0566000000e-01 0.0000e+00 -1.0000e+00
      -13  1    1    2    0    0 +2.6537689126e+01 +1.5288987065e+01 -7.1912048338e+01 7.8162369013e+01 1.0566000000e-01 0.0000e+00 1.0000e+00
       13  1    1    2    0    0 +7.9514551055e+01 -1.7335598946e+02 -5.1362814364e+02 5.4789482934e+02 1.0566000000e-01 0.0000e+00 -1.0000e+00
<mgrwt>
<rscale>  0 0.52068369E+03</rscale>
<asrwt>0</asrwt>
<pdfrwt beam="1">  1        1 0.25581043E+00 0.52068369E+03</pdfrwt>
<pdfrwt beam="2">  1       -1 0.16559596E-01 0.52068369E+03</pdfrwt>
<totfact> 0.14798461E+02</totfact>
</mgrwt>
</event>
<event>
 6      1 +1.8175624e-03 4.35651700e+02 7.81860800e-03 1.03208900e-01
        1 -1    0    0  501    0 +0.0000000000e+00 +0.0000000000e+00 +8.9565269702e+02 8.9565269704e+02 5.0400000000e-03 0.0000e+00 -1.0000e+00
       -1 -1    0    0    0  501 -0.0000000000e+00 -0.0000000000e+00 -5.2975995405e+01 5.2975995645e+01 5.0400000000e-03 0.0000e+00 1.0000e+00
      -13  1    1    2    0    0 +1.4177462207e+00 +9.7772464177e+01 +1.4876819806e+02 1.7802655048e+02 1.0566000000e-01 0.0000e+00 -1.0000e+00
       13  1    1    2    0    0 -3.8603432392e+01 +2.6875412600e+01 +6.3602728741e+00 4.7465535180e+01 1.0566000000e-01 0.0000e+00 -1.0000e+00
      -13  1    1    2    0    0 +9.4145678385e+00 +4.7560656459e+01 +1.2132194873e+02 1.3065097221e+02 1.0566000000e-01 0.0000e+00 1.0000e+00
       13  1    1    2    0    0 +2.7771118333e+01 -1.7220853324e+02 +5.6622628194e+02 5.9248563481e+02 1.0566000000e-01 0.0000e+00 1.0000e+00
<mgrwt>
<rscale>  0 0.43565166E+03</rscale>
<asrwt>0</asrwt>
<pdfrwt beam="1">  1        1 0.22391318E+00 0.43565166E+03</pdfrwt>
<pdfrwt beam="2">  1       -1 0.13243999E-01 0.43565166E+03</pdfrwt>
<totfact> 0.29522782E+02</totfact>
</mgrwt>
</event>
<event>
 6      1 +1.8175624e-03 5.38946600e+02 7.81860800e-03 1.00408500e-01
       -1 -1    0    0    0  501 -0.0000000000e+00 +0.0000000000e+00 +2.8418321148e+02 2.8418321152e+02 5.0400000000e-03 0.0000e+00 1.0000e+00
        1 -1    0    0  501    0 +0.0000000000e+00 -0.0000000000e+00 -2.5552476677e+02 2.5552476682e+02 5.0400000000e-03 0.0000e+00 -1.0000e+00
      -13  1    1    2    0    0 +3.1300067373e+00 +2.1107077938e+01 -2.7888620003e+01 3.5115409309e+01 1.0566000000e-01 0.0000e+00 -1.0000e+00
       13  1    1    2    0    0 -3.0337753179e+01 +8.7506752271e+01 -1.3689469314e+02 1.6528151480e+02 1.0566000000e-01 0.0000e+00 -1.0000e+00
      -13  1    1    2    0    0 -3.2617210816e+01 -1.8152011827e+02 +1.2555400222e+02 2.2310816752e+02 1.0566000000e-01 0.0000e+00 1.0000e+00
       13  1    1    2    0    0 +5.9824957258e+01 +7.2906288056e+01 +6.7887755638e+01 1.1620288671e+02 1.0566000000e-01 0.0000e+00 1.0000e+00
<mgrwt>
<rscale>  0 0.53894656E+03</rscale>
<asrwt>0</asrwt>
<pdfrwt beam="1">  1        1 0.63881192E-01 0.53894656E+03</pdfrwt>
<pdfrwt beam="2">  1       -1 0.71045803E-01 0.53894656E+03</pdfrwt>
<totfact> 0.11784725E+02</totfact>
</mgrwt>
</event>
<event>
 6      1 +1.8175624e-03 5.82640200e+02 7.81860800e-03 9.94209100e-02
       -2 -1    0    0    0  501 -0.0000000000e+00 +0.0000000000e+00 +4.2588436943e+01 4.2588437019e+01 2.5500000000e-03 0.0000e+00 1.0000e+00
        2 -1    0    0  501    0 +0.0000000000e+00 -0.0000000000e+00 -1.9927333973e+03 1.9927333973e+03 2.5500000000e-03 0.0000e+00 -1.0000e+00
      -13  1    1    2    0    0 -1.4083478689e+01 -7.0047312703e+01 -9.4234769131e+01 1.1825892468e+02 1.0566000000e-01 0.0000e+00 1.0000e+00
       13  1    1    2    0    0 -7.4319094848e+01 -8.9504057004e+01 -5.1206559457e+02 5.2511473830e+02 1.0566000000e-01 0.0000e+00 -1.0000e+00
      -13  1    1    2    0    0 +1.6787067052e+02 +1.8547341401e+02 -1.1980663743e+03 1.2239052241e+03 1.0566000000e-01 0.0000e+00 1.0000e+00
       13  1    1    2    0    0 -7.9468096982e+01 -2.5922044306e+01 -1.4577822235e+02 1.6804294717e+02 1.0566000000e-01 0.0000e+00 -1.0000e+00
<mgrwt>
<rscale>  0 0.58264020E+03</rscale>
<asrwt>0</asrwt>
<pdfrwt beam="1">  1        2 0.49818304E+00 0.58264020E+03</pdfrwt>
<pdfrwt beam="2">  1       -2 0.10647116E-01 0.58264020E+03</pdfrwt>
<totfact> 0.82880828E+01</totfact>
</mgrwt>
</event>
<event>
 7      1 +1.8175624e-03 9.27753400e+01 7.81860800e-03 1.29626700e-01
        1 -1    0    0  501    0 +0.0000000000e+00 +0.0000000000e+00 +1.6133553518e+01 1.6133554305e+01 5.0400000000e-03 0.0000e+00 -1.0000e+00
       -1 -1    0    0    0  501 -0.0000000000e+00 -0.0000000000e+00 -1.3337518798e+02 1.3337518807e+02 5.0400000000e-03 0.0000e+00 1.0000e+00
       23  2    1    2    0    0 -4.4408920985e-16 -5.3290705182e-15 -1.1724163446e+02 1.4950874238e+02 9.2775337223e+01 0.0000e+00 0.0000e+00
      -13  1    3    3    0    0 -8.0984242836e+00 +1.5316972844e+01 -2.2443048515e+01 2.8353054926e+01 1.0566000000e-01 0.0000e+00 -1.0000e+00
       13  1    3    3    0    0 -1.1933102234e+00 -1.2302461649e+01 -3.6484204531e+01 3.8521200607e+01 1.0566000000e-01 0.0000e+00 1.0000e+00
      -13  1    3    3    0    0 -1.5803198056e+01 -1.5863560498e+01 -5.9602668613e+00 2.3171740668e+01 1.0566000000e-01 0.0000e+00 -1.0000e+00
       13  1    3    3    0    0 +2.5094932563e+01 +1.2849049303e+01 -5.2354114553e+01 5.9462746178e+01 1.0566000000e-01 0.0000e+00 1.0000e+00
<mgrwt>
<rscale>  0 0.92775337E+02</rscale>
<asrwt>0</asrwt>
<pdfrwt beam="1">  1        1 0.40333889E-02 0.92775337E+02</pdfrwt>
<pdfrwt beam="2">  1       -1 0.33343794E-01 0.92775337E+02</pdfrwt>
<totfact> 0.17069537E+04</totfact>
</mgrwt>
</event>
<event>
 6      1 +1.8175624e-03 2.05751700e+02 7.81860800e-03 1.14497500e-01
       -2 -1    0    0    0  501 -0.0000000000e+00 +0.0000000000e+00 +2.4673427312e+01 2.4673427443e+01 2.5500000000e-03 0.0000e+00 1.0000e+00
        2 -1    0    0  501    0 +0.0000000000e+00 -0.0000000000e+00 -4.2894068106e+02 4.2894068107e+02 2.5500000000e-03 0.0000e+00 -1.0000e+00
      -13  1    1    2    0    0 +3.9390052711e+01 -8.3387620845e+00 -4.7824044546e+01 6.2516090780e+01 1.0566000000e-01 0.0000e+00 -1.0000e+00
       13  1    1    2    0    0 -2.8882004944e+01 -1.0570465550e+01 -6.2006467137e+00 3.1374577850e+01 1.0566000000e-01 0.0000e+00 1.0000e+00
      -13  1    1    2    0    0 -3.2985817296e+01 -1.8141235800e+01 -1.3435635010e+02 1.3953067245e+02 1.0566000000e-01 0.0000e+00 1.0000e+00
       13  1    1    2    0    0 +2.2477769528e+01 +3.7050463435e+01 -2.1588621239e+02 2.2019276743e+02 1.0566000000e-01 0.0000e+00 -1.0000e+00
<mgrwt>
<rscale>  0 0.20575166E+03</rscale>
<asrwt>0</asrwt>
<pdfrwt beam="1">  1        2 0.10723515E+00 0.20575166E+03</pdfrwt>
<pdfrwt beam="2">  1       -2 0.61683582E-02 0.20575166E+03</pdfrwt>
<totfact> 0.58903788E+03</totfact>
</mgrwt>
</event>
<event>
 6      1 +1.8175624e-03 3.67256400e+02 7.81860800e-03 1.05574700e-01
        1 -1    0    0  501    0 +0.0000000000e+00 +0.0000000000e+00 +7.8172328687e+01 7.8172328849e+01 5.0400000000e-03 0.0000e+00 -1.0000e+00
       -1 -1    0    0    0  501 -0.0000000000e+00 -0.0000000000e+00 -4.3134582731e+02 4.3134582734e+02 5.0400000000e-03 0.0000e+00 1.0000e+00
      -13  1    1    2    0    0 -2.1425378412e+01 +1.8216709109e+01 -4.5822297868e+01 5.3764202559e+01 1.0566000000e-01 0.0000e+00 -1.0000e+00
       13  1    1    2    0    0 -1.1738601892e+01 -1.0186982991e+02 -2.7482894874e+02 2.9333635855e+02 1.0566000000e-01 0.0000e+00 1.0000e+00
      -13  1    1    2    0    0 -4.0398110847e+01 +2.3985940281e+01 -4.7167006964e+01 6.6573796656e+01 1.0566000000e-01 0.0000e+00 1.0000e+00
       13  1    1    2    0    0 +7.3562091152e+01 +5.9667180518e+01 +1.4644754943e+01 9.5843798427e+01 1.0566000000e-01 0.0000e+00 -1.0000e+00
<mgrwt>
<rscale>  0 0.36725636E+03</rscale>
<asrwt>0</asrwt>
<pdfrwt beam="1">  1        1 0.19543083E-01 0.36725636E+03</pdfrwt>
<pdfrwt beam="2">  1       -1 0.10783645E+00 0.36725636E+03</pdfrwt>
<totfact> 0.22299384E+02</totfact>
</mgrwt>
</event>
<event>
 6      1 +1.8175624e-03 3.18658300e+02 7.81860800e-03 1.07626800e-01
        2 -1    0    0  501    0 +0.0000000000e+00 +0.0000000000e+00 +7.4124270863e+01 7.4124270907e+01 2.5500000000e-03 0.0000e+00 1.0000e+00
       -2 -1    0    0    0  501 -0.0000000000e+00 -0.0000000000e+00 -3.4247583637e+02 3.4247583638e+02 2.5500000000e-03 0.0000e+00 -1.0000e+00
      -13  1    1    2    0    0 +4.7545463562e+01 -2.7593741986e+01 -1.3379816089e+02 1.4465111380e+02 1.0566000000e-01 0.0000e+00 -1.0000e+00
       13  1    1    2    0    0 +4.8484466083e+00 +1.0209745664e+02 -7.4256074268e+01 1.2633833075e+02 1.0566000000e-01 0.0000e+00 1.0000e+00
      -13  1    1    2    0    0 +2.3579752197e+01 -1.7393058941e+01 +5.7636847692e+00 2.9862257771e+01 1.0566000000e-01 0.0000e+00 -1.0000e+00
       13  1    1    2    0    0 -7.5973662368e+01 -5.7110655711e+01 -6.6061015109e+01 1.1574840496e+02 1.0566000000e-01 0.0000e+00 1.0000e+00
<mgrwt>
<rscale>  0 0.31865826E+03</rscale>
<asrwt>0</asrwt>
<pdfrwt beam="1">  1        2 0.18531069E-01 0.31865826E+03</pdfrwt>
<pdfrwt beam="2">  1       -2 0.85618955E-01 0.31865826E+03</pdfrwt>
<totfact> 0.37253774E+02</totfact>
</mgrwt>
</event>
<event>
 6      1 +1.8175624e-03 3.19315400e+02 7.81860800e-03 1.07596500e-01
        2 -1    0    0  501    0 +0.0000000000e+00 +0.0000000000e+00 +5.3032791221e+02 5.3032791221e+02 2.5500000000e-03 0.0000e+00 -1.0000e+00
       -2 -1    0    0    0  501 -0.0000000000e+00 -0.0000000000e+00 -4.8065703112e+01 4.8065703180e+01 2.5500000000e-03 0.0000e+00 1.0000e+00
      -13  1    1    2    0    0 -9.0883936785e+01 +5.8221558547e+01 +1.1749968020e+02 1.5954881967e+02 1.0566000000e-01 0.0000e+00 1.0000e+00
       13  1    1    2    0    0 -1.7544308242e+01 +2.2314816874e+01 +9.8565416449e+01 1.0257146917e+02 1.0566000000e-01 0.0000e+00 1.0000e+00
      -13  1    1    2    0    0 +1.6073117242e+01 -6.7538564902e+01 +6.7759602131e+01 9.7011224567e+01 1.0566000000e-01 0.0000e+00 -1.0000e+00
       13  1    1    2    0    0 +9.2355127785e+01 -1.2997810519e+01 +1.9843751031e+02 2.1926210199e+02 1.0566000000e-01 0.0000e+00 -1.0000e+00
<mgrwt>
<rscale>  0 0.31931542E+03</rscale>
<asrwt>0</asrwt>
<pdfrwt beam="1">  1        2 0.13258198E+00 0.31931542E+03</pdfrwt>
<pdfrwt beam="2">  1       -2 0.12016426E-01 0.31931542E+03</pdfrwt>
<totfact> 0.15886500E+03</totfact>
</mgrwt>
</event>
<event>
 6      1 +1.8175624e-03 2.69971100e+02 7.81860800e-03 1.10129600e-01
       -2 -1    0    0    0  501 -0.0000000000e+00 +0.0000000000e+00 +3.1114089710e+01 3.1114089814e+01 2.5500000000e-03 0.0000e+00 1.0000e+00
        2 -1    0    0  501    0 +0.0000000000e+00 -0.0000000000e+00 -5.8562209611e+02 5.8562209612e+02 2.5500000000e-03 0.0000e+00 -1.0000e+00
      -13  1    1    2    0    0 +2.0457927308e+01 -5.1999456377e+00 -5.5649437273e+01 5.9518377475e+01 1.0566000000e-01 0.0000e+00 -1.0000e+00
       13  1    1    2    0    0 +6.8620872968e+01 +1.2744218954e+01 -3.2296615031e+02 3.3042152584e+02 1.0566000000e-01 0.0000e+00 -1.0000e+00
      -13  1    1    2    0    0 -1.0269514118e+01 -3.1232101244e+01 -1.2675624794e+02 1.3095061903e+02 1.0566000000e-01 0.0000e+00 1.0000e+00
       13  1    1    2    0    0 -7.8809286158e+01 +2.3687827928e+01 -4.9136170873e+01 9.5845663589e+01 1.0566000000e-01 0.0000e+00 1.0000e+00
<mgrwt>
<rscale>  0 0.26997110E+03</rscale>
<asrwt>0</asrwt>
<pdfrwt beam="1">  1        2 0.14640549E+00 0.26997110E+03</pdfrwt>
<pdfrwt beam="2">  1       -2 0.77785243E-02 0.26997110E+03</pdfrwt>
<totfact> 0.27766947E+03</totfact>
</mgrwt>
</event>
<event>
 6      1 +1.8175624e-03 3.35337900e+02 7.81860800e-03 1.06879900e-01
       -2 -1    0    0    0  501 -0.0000000000e+00 +0.0000000000e+00 +5.1982267020e+01 5.1982267082e+01 2.5500000000e-03 0.0000e+00 1.0000e+00
        2 -1    0    0  501    0 +0.0000000000e+00 -0.0000000000e+00 -5.4081667813e+02 5.4081667814e+02 2.5500000000e-03 0.0000e+00 -1.0000e+00
      -13  1    1    2    0    0 +3.6985164866e+01 +1.5372474576e+01 +1.7322046369e+01 4.3638055057e+01 1.0566000000e-01 0.0000e+00 1.0000e+00
       13  1    1    2    0    0 -1.7548157994e+01 +6.2750049318e+01 -2.7699688983e+02 2.8455719052e+02 1.0566000000e-01 0.0000e+00 -1.0000e+00
      -13  1    1    2    0    0 +2.6153602613e+01 -8.1617117520e+01 -1.6335355331e+02 1.8447156785e+02 1.0566000000e-01 0.0000e+00 1.0000e+00
       13  1    1    2    0    0 -4.5590609485e+01 +3.4945936258e+00 -6.5806014338e+01 8.0132131788e+01 1.0566000000e-01 0.0000e+00 -1.0000e+00
<mgrwt>
<rscale>  0 0.33533790E+03</rscale>
<asrwt>0</asrwt>
<pdfrwt beam="1">  1        2 0.13520415E+00 0.33533790E+03</pdfrwt>
<pdfrwt beam="2">  1       -2 0.12995568E-01 0.33533790E+03</pdfrwt>
<totfact> 0.13617121E+03</totfact>
</mgrwt>
</event>
<event>
 6      1 +1.8175624e-03 2.39953900e+02 7.81860800e-03 1.11982400e-01
       -2 -1    0    0    0  501 -0.0000000000e+00 +0.0000000000e+00 +1.0437922664e+02 1.0437922667e+02 2.5500000000e-03 0.0000e+00 1.0000e+00
        2 -1    0    0  501    0 +0.0000000000e+00 -0.0000000000e+00 -1.3790553579e+02 1.3790553581e+02 2.5500000000e-03 0.0000e+00 -1.0000e+00
      -13  1    1    2    0    0 +1.0326251241e+01 +6.6252525260e+00 -6.0747505467e+01 6.1974156067e+01 1.0566000000e-01 0.0000e+00 -1.0000e+00
       13  1    1    2    0    0 -1.3657657687e+01 +4.2709690150e+01 +3.0227534945e+01 5.4077391570e+01 1.0566000000e-01 0.0000e+00 1.0000e+00
      -13  1    1    2    0    0 +3.0894301732e+01 -6.3675887508e+01 +3.3493151909e+01 7.8299929235e+01 1.0566000000e-01 0.0000e+00 1.0000e+00
       13  1    1    2    0    0 -2.7562895286e+01 +1.4340944832e+01 -3.6499490537e+01 4.7933285603e+01 1.0566000000e-01 0.0000e+00 -1.0000e+00
<mgrwt>
<rscale>  0 0.23995394E+03</rscale>
<asrwt>0</asrwt>
<pdfrwt beam="1">  1        2 0.34476384E-01 0.23995394E+03</pdfrwt>
<pdfrwt beam="2">  1       -2 0.26094807E-01 0.23995394E+03</pdfrwt>
<totfact> 0.19683740E+03</totfact>
</mgrwt>
</event>
<event>
 6      1 +1.8175624e-03 3.73868700e+02 7.81860800e-03 1.05322300e-01
        2 -1    0    0  501    0 +0.0000000000e+00 +0.0000000000e+00 +1.4122565444e+02 1.4122565446e+02 2.5500000000e-03 0.0000e+00 1.0000e+00
       -2 -1    0    0    0  501 -0.0000000000e+00 -0.0000000000e+00 -2.4743697846e+02 2.4743697847e+02 2.5500000000e-03 0.0000e+00 -1.0000e+00
      -13  1    1    2    0    0 +7.2230978765e+01 +2.5082597565e+01 -4.0539702349e+01 8.6544379508e+01 1.0566000000e-01 0.0000e+00 -1.0000e+00
       13  1    1    2    0    0 -1.4417763532e+02 +6.4001948712e+01 +8.5887164229e-01 1.5774723069e+02 1.0566000000e-01 0.0000e+00 1.0000e+00
      -13  1    1    2    0    0 +5.3056150331e+01 -4.6644477407e+01 -1.0233327157e+01 7.1382032117e+01 1.0566000000e-01 0.0000e+00 -1.0000e+00
       13  1    1    2    0    0 +1.8890506226e+01 -4.2440068870e+01 -5.6297166156e+01 7.2988990624e+01 1.0566000000e-01 0.0000e+00 1.0000e+00
<mgrwt>
<rscale>  0 0.37386869E+03</rscale>
<asrwt>0</asrwt>
<pdfrwt beam="1">  1        2 0.35306414E-01 0.37386869E+03</pdfrwt>
<pdfrwt beam="2">  1       -2 0.61859244E-01 0.37386869E+03</pdfrwt>
<totfact> 0.36460806E+02</totfact>
</mgrwt>
</event>
<event>
 6      1 +1.8175624e-03 3.96843800e+02 7.81860800e-03 1.04487800e-01
        2 -1    0    0  501    0 +0.0000000000e+00 +0.0000000000e+00 +2.3275656498e+02 2.3275656499e+02 2.5500000000e-03 0.0000e+00 -1.0000e+00
       -2 -1    0    0    0  501 -0.0000000000e+00 -0.0000000000e+00 -1.6915203322e+02 1.6915203324e+02 2.5500000000e-03 0.0000e+00 1.0000e+00
      -13  1    1    2    0    0 -1.1138889262e+02 +7.2587993312e+01 -3.9796277571e+01 1.3878132816e+02 1.0566000000e-01 0.0000e+00 1.0000e+00
       13  1    1    2    0    0 -2.2051226197e+01 -2.2944504206e+00 +1.4212228887e+01 2.6334762074e+01 1.0566000000e-01 0.0000e+00 1.0000e+00
      -13  1    1    2    0    0 +7.1597665601e+01 -8.0342867500e+01 +1.2474716327e+02 1.6475153409e+02 1.0566000000e-01 0.0000e+00 -1.0000e+00
       13  1    1    2    0    0 +6.1842453215e+01 +1.0049324609e+01 -3.5558582827e+01 7.2040973907e+01 1.0566000000e-01 0.0000e+00 -1.0000e+00
<mgrwt>
<rscale>  0 0.39684378E+03</rscale>
<asrwt>0</asrwt>
<pdfrwt beam="1">  1        2 0.58189141E-01 0.39684378E+03</pdfrwt>
<pdfrwt beam="2">  1       -2 0.42288009E-01 0.39684378E+03</pdfrwt>
<totfact> 0.45518642E+02</totfact>
</mgrwt>
</event>
<event>
 6      1 +1.8175624e-03 1.94415300e+02 7.81860800e-03 1.15453800e-01
       -2 -1    0    0    0  501 -0.0000000000e+00 +0.0000000000e+00 +9.1478871616e+01 9.1478871651e+01 2.5500000000e-03 0.0000e+00 1.0000e+00
        2 -1    0    0  501    0 +0.0000000000e+00 -0.0000000000e+00 -1.0329516951e+02 1.0329516955e+02 2.5500000000e-03 0.0000e+00 -1.0000e+00
      -13  1    1    2    0    0 -1.8444908578e+01 +2.1808852261e+01 +2.7778951145e+01 3.9843719457e+01 1.0566000000e-01 0.0000e+00 1.0000e+00
       13  1    1    2    0    0 +7.6377156143e+00 +4.2608501934e+01 -6.2374747410e+00 4.3734841855e+01 1.0566000000e-01 0.0000e+00 1.0000e+00
      -13  1    1    2    0    0 -2.5044903937e+01 -5.1944366268e+01 -4.3113744189e+01 7.2001878463e+01 1.0566000000e-01 0.0000e+00 -1.0000e+00
       13  1    1    2    0    0 +3.5852096901e+01 -1.2472987927e+01 +9.7559698863e+00 3.9193601423e+01 1.0566000000e-01 0.0000e+00 -1.0000e+00
<mgrwt>
<rscale>  0 0.19441528E+03</rscale>
<asrwt>0</asrwt>
<pdfrwt beam="1">  1        2 0.25823792E-01 0.19441528E+03</pdfrwt>
<pdfrwt beam="2">  1       -2 0.22869718E-01 0.19441528E+03</pdfrwt>
<totfact> 0.33833184E+03</totfact>
</mgrwt>
</event>
<event>
 6      1 +1.8175624e-03 7.03075800e+02 7.81860800e-03 9.71198700e-02
        2 -1    0    0  501    0 +0.0000000000e+00 +0.0000000000e+00 +1.8719355148e+02 1.8719355149e+02 2.5500000000e-03 0.0000e+00 -1.0000e+00
       -2 -1    0    0    0  501 -0.0000000000e+00 -0.0000000000e+00 -6.6016642506e+02 6.6016642507e+02 2.5500000000e-03 0.0000e+00 1.0000e+00
      -13  1    1    2    0    0 -9.0144108096e+00 +3.2133240360e+01 -1.0738696208e+02 1.1245343716e+02 1.0566000000e-01 0.0000e+00 1.0000e+00
       13  1    1    2    0    0 -8.2483647909e+01 -2.2819981344e+01 -6.4338119400e+01 1.0706870922e+02 1.0566000000e-01 0.0000e+00 -1.0000e+00
      -13  1    1    2    0    0 +3.6132378937e+01 -1.9864485700e+02 -3.6786599699e+02 4.1963166102e+02 1.0566000000e-01 0.0000e+00 1.0000e+00
       13  1    1    2    0    0 +5.5365679782e+01 +1.8933159799e+02 +6.6618204893e+01 2.0820616917e+02 1.0566000000e-01 0.0000e+00 -1.0000e+00
<mgrwt>
<rscale>  0 0.70307581E+03</rscale>
<asrwt>0</asrwt>
<pdfrwt beam="1">  1        2 0.46798389E-01 0.70307581E+03</pdfrwt>
<pdfrwt beam="2">  1       -2 0.16504160E+00 0.70307581E+03</pdfrwt>
<totfact> 0.25430841E+01</totfact>
</mgrwt>
</event>
<event>
 6      1 +1.8175624e-03 1.44075200e+02 7.81860800e-03 1.20794800e-01
        2 -1    0    0  501    0 +0.0000000000e+00 +0.0000000000e+00 +1.4051719307e+02 1.4051719309e+02 2.5500000000e-03 0.0000e+00 1.0000e+00
       -2 -1    0    0    0  501 -0.0000000000e+00 -0.0000000000e+00 -3.6930806984e+01 3.6930807072e+01 2.5500000000e-03 0.0000e+00 -1.0000e+00
      -13  1    1    2    0    0 +3.5693690923e+00 -1.9765656970e+01 +2.4060446408e+00 2.0229231474e+01 1.0566000000e-01 0.0000e+00 -1.0000e+00
       13  1    1    2    0    0 +1.8888173411e-01 +4.2883329672e+01 +4.2398653735e+01 6.0304831006e+01 1.0566000000e-01 0.0000e+00 -1.0000e+00
      -13  1    1    2    0    0 -1.7999487083e+01 -4.2679708270e+01 +1.8406570229e+01 4.9843274620e+01 1.0566000000e-01 0.0000e+00 1.0000e+00
       13  1    1    2    0    0 +1.4241236257e+01 +1.9562035567e+01 +4.0375117481e+01 4.7070663064e+01 1.0566000000e-01 0.0000e+00 1.0000e+00
<mgrwt>
<rscale>  0 0.14407517E+03</rscale>
<asrwt>0</asrwt>
<pdfrwt beam="1">  1        2 0.35129298E-01 0.14407517E+03</pdfrwt>
<pdfrwt beam="2">  1       -2 0.92327019E-02 0.14407517E+03</pdfrwt>
<totfact> 0.10520232E+04</totfact>
</mgrwt>
</event>
<event>
 6      1 +1.8175624e-03 4.65455100e+02 7.81860800e-03 1.02321100e-01
        1 -1    0    0  501    0 +0.0000000000e+00 +0.0000000000e+00 +4.2952346150e+02 4.2952346153e+02 5.0400000000e-03 0.0000e+00 -1.0000e+00
       -1 -1    0    0    0  501 -0.0000000000e+00 -0.0000000000e+00 -1.2609814976e+02 1.2609814986e+02 5.0400000000e-03 0.0000e+00 1.0000e+00
      -13  1    1    2    0    0 -1.1964633143e+02 +4.6014447023e+01 +3.8103357962e+01 1.3373275968e+02 1.0566000000e-01 0.0000e+00 1.0000e+00
       13  1    1    2    0    0 +1.1911297682e+02 -8.9972502810e+01 +2.6825847148e+02 3.0699441557e+02 1.0566000000e-01 0.0000e+00 -1.0000e+00
      -13  1    1    2    0    0 +2.4651012862e+01 -2.0633634453e+01 -2.6883675007e+01 4.1906591985e+01 1.0566000000e-01 0.0000e+00 -1.0000e+00
       13  1    1    2    0    0 -2.4117658258e+01 +6.4591690240e+01 +2.3947157304e+01 7.2987844159e+01 1.0566000000e-01 0.0000e+00 1.0000e+00
<mgrwt>
<rscale>  0 0.46545511E+03</rscale>
<asrwt>0</asrwt>
<pdfrwt beam="1">  1        1 0.10738086E+00 0.46545511E+03</pdfrwt>
<pdfrwt beam="2">  1       -1 0.31524538E-01 0.46545511E+03</pdfrwt>
<totfact> 0.26313134E+02</totfact>
</mgrwt>
</event>
<event>
 6      1 +1.8175624e-03 5.61096600e+02 7.81860800e-03 9.98957600e-02
        3 -1    0    0  501    0 +0.0000000000e+00 +0.0000000000e+00 +1.3015480112e+02 1.3015484031e+02 1.0100000000e-01 0.0000e+00 1.0000e+00
       -3 -1    0    0    0  501 -0.0000000000e+00 -0.0000000000e+00 -6.0472093408e+02 6.0472094251e+02 1.0100000000e-01 0.0000e+00 -1.0000e+00
      -13  1    1    2    0    0 +7.6105618068e+01 +7.2558554657e+01 -1.4576817432e+01 1.0615697681e+02 1.0566000000e-01 0.0000e+00 1.0000e+00
       13  1    1    2    0    0 -1.3447341133e+02 +4.3448588113e+01 -1.4281577730e+02 2.0091599133e+02 1.0566000000e-01 0.0000e+00 1.0000e+00
      -13  1    1    2    0    0 +1.9173242150e+01 -9.9200977385e+01 -3.5604269456e+02 3.7010114650e+02 1.0566000000e-01 0.0000e+00 -1.0000e+00
       13  1    1    2    0    0 +3.9194551107e+01 -1.6806165384e+01 +3.8869156336e+01 5.7701668171e+01 1.0566000000e-01 0.0000e+00 -1.0000e+00
<mgrwt>
<rscale>  0 0.56109661E+03</rscale>
<asrwt>0</asrwt>
<pdfrwt beam="1">  1        3 0.32538708E-01 0.56109661E+03</pdfrwt>
<pdfrwt beam="2">  1       -3 0.15118023E+00 0.56109661E+03</pdfrwt>
<totfact> 0.77073526E+00</totfact>
</mgrwt>
</event>
<event>
 6      1 +1.8175624e-03 1.32614300e+02 7.81860800e-03 1.22362700e-01
       -2 -1    0    0    0  501 -0.0000000000e+00 +0.0000000000e+00 +4.0321860405e+01 4.0321860486e+01 2.5500000000e-03 0.0000e+00 -1.0000e+00
        2 -1    0    0  501    0 +0.0000000000e+00 -0.0000000000e+00 -1.0903864479e+02 1.0903864482e+02 2.5500000000e-03 0.0000e+00 1.0000e+00
      -13  1    1    2    0    0 +1.7169181077e+01 -2.5783792445e+01 -4.0943746688e+01 5.1341857082e+01 1.0566000000e-01 0.0000e+00 1.0000e+00
       13  1    1    2    0    0 +8.3449121748e+00 +1.5532422097e+01 -1.3187507218e+01 2.2018519615e+01 1.0566000000e-01 0.0000e+00 1.0000e+00
      -13  1    1    2    0    0 -2.7238060511e+01 -1.9612251915e+01 +1.2332590917e+01 3.5758304327e+01 1.0566000000e-01 0.0000e+00 -1.0000e+00
       13  1    1    2    0    0 +1.7239672595e+00 +2.9863622264e+01 -2.6918121391e+01 4.0241824277e+01 1.0566000000e-01 0.0000e+00 -1.0000e+00
<mgrwt>
<rscale>  0 0.13261434E+03</rscale>
<asrwt>0</asrwt>
<pdfrwt beam="1">  1        2 0.27259661E-01 0.13261434E+03</pdfrwt>
<pdfrwt beam="2">  1       -2 0.10080465E-01 0.13261434E+03</pdfrwt>
<totfact> 0.11981155E+04</totfact>
</mgrwt>
</event>
<event>
 6      1 +1.8175624e-03 2.82615600e+02 7.81860800e-03 1.09426900e-01
       -2 -1    0    0    0  501 -0.0000000000e+00 +0.0000000000e+00 +7.5257927161e+01 7.5257927204e+01 2.5500000000e-03 0.0000e+00 1.0000e+00
        2 -1    0    0  501    0 +0.0000000000e+00 -0.0000000000e+00 -2.6532621979e+02 2.6532621980e+02 2.5500000000e-03 0.0000e+00 -1.0000e+00
      -13  1    1    2    0    0 +5.0114212189e+01 +1.7876552573e+00 +5.9849342865e+00 5.0502084879e+01 1.0566000000e-01 0.0000e+00 1.0000e+00
       13  1    1    2    0    0 +2.3575598246e+01 -3.0890550145e+01 -1.3054004730e+01 4.0993330244e+01 1.0566000000e-01 0.0000e+00 -1.0000e+00
      -13  1    1    2    0    0 -8.4736519052e+01 -3.3707763675e+01 -5.6109054932e+01 1.0707347105e+02 1.0566000000e-01 0.0000e+00 1.0000e+00
       13  1    1    2    0    0 +1.1046708617e+01 +6.2810658563e+01 -1.2689016726e+02 1.4201526084e+02 1.0566000000e-01 0.0000e+00 -1.0000e+00
<mgrwt>
<rscale>  0 0.28261565E+03</rscale>
<asrwt>0</asrwt>
<pdfrwt beam="1">  1        2 0.66331553E-01 0.28261565E+03</pdfrwt>
<pdfrwt beam="2">  1       -2 0.18814482E-01 0.28261565E+03</pdfrwt>
<totfact> 0.17149493E+03</totfact>
</mgrwt>
</event>
<event>
 6      1 +1.8175624e-03 2.59603800e+02 7.81860800e-03 1.10738100e-01
        2 -1    0    0  501    0 +0.0000000000e+00 +0.0000000000e+00 +7.6349944630e+01 7.6349944673e+01 2.5500000000e-03 0.0000e+00 -1.0000e+00
       -2 -1    0    0    0  501 -0.0000000000e+00 -0.0000000000e+00 -2.2067517974e+02 2.2067517975e+02 2.5500000000e-03 0.0000e+00 1.0000e+00
      -13  1    1    2    0    0 -5.4744191747e+01 -3.3134096141e+01 -1.3655352219e+02 1.5080341655e+02 1.0566000000e-01 0.0000e+00 1.0000e+00
       13  1    1    2    0    0 +1.2651300123e+01 -2.4268020667e+01 +5.9136741794e+00 2.7999552286e+01 1.0566000000e-01 0.0000e+00 -1.0000e+00
      -13  1    1    2    0    0 +6.4083294758e+01 +6.7374489336e+01 -1.4249584756e+01 9.4069401562e+01 1.0566000000e-01 0.0000e+00 1.0000e+00
       13  1    1    2    0    0 -2.1990403134e+01 -9.9723725277e+00 +5.6419766280e-01 2.4152754023e+01 1.0566000000e-01 0.0000e+00 -1.0000e+00
<mgrwt>
<rscale>  0 0.25960383E+03</rscale>
<asrwt>0</asrwt>
<pdfrwt beam="1">  1        2 0.19087487E-01 0.25960383E+03</pdfrwt>
<pdfrwt beam="2">  1       -2 0.55168794E-01 0.25960383E+03</pdfrwt>
<totfact> 0.92162191E+02</totfact>
</mgrwt>
</event>
<event>
 6      1 +1.8175624e-03 2.41289000e+02 7.81860800e-03 1.11893700e-01
       -2 -1    0    0    0  501 -0.0000000000e+00 +0.0000000000e+00 +2.3898161511e+02 2.3898161512e+02 2.5500000000e-03 0.0000e+00 1.0000e+00
        2 -1    0    0  501    0 +0.0000000000e+00 -0.0000000000e+00 -6.0904645863e+01 6.0904645916e+01 2.5500000000e-03 0.0000e+00 -1.0000e+00
      -13  1    1    2    0    0 +2.7605165942e+01 +1.3184935297e+01 +2.8537620559e+01 4.1836522999e+01 1.0566000000e-01 0.0000e+00 -1.0000e+00
       13  1    1    2    0    0 +3.5387390924e+01 +2.7586030642e+01 +1.7291346423e+01 4.8085947512e+01 1.0566000000e-01 0.0000e+00 -1.0000e+00
      -13  1    1    2    0    0 +3.8632686876e+01 -4.3174141750e+01 +6.9593332016e+01 9.0552382830e+01 1.0566000000e-01 0.0000e+00 1.0000e+00
       13  1    1    2    0    0 -1.0162524374e+02 +2.4031758104e+00 +6.2654670245e+01 1.1941140769e+02 1.0566000000e-01 0.0000e+00 1.0000e+00
<mgrwt>
<rscale>  0 0.24128896E+03</rscale>
<asrwt>0</asrwt>
<pdfrwt beam="1">  1        2 0.15226162E-01 0.24128896E+03</pdfrwt>
<pdfrwt beam="2">  1       -2 0.59745403E-01 0.24128896E+03</pdfrwt>
<totfact> 0.10179921E+03</totfact>
</mgrwt>
</event>
<event>
 6      1 +1.8175624e-03 3.26504600e+02 7.81860800e-03 1.07269400e-01
       -2 -1    0    0    0  501 -0.0000000000e+00 +0.0000000000e+00 +3.3823288103e+02 3.3823288104e+02 2.5500000000e-03 0.0000e+00 -1.0000e+00
        2 -1    0    0  501    0 +0.0000000000e+00 -0.0000000000e+00 -7.8795767806e+01 7.8795767848e+01 2.5500000000e-03 0.0000e+00 1.0000e+00
      -13  1    1    2    0    0 +1.3487143627e+01 +5.2513482076e+01 +2.1360194032e+01 5.8273818272e+01 1.0566000000e-01 0.0000e+00 1.0000e+00
       13  1    1    2    0    0 -4.8271759824e+01 -2.6092139288e+01 +1.9426765783e+01 5.8209732193e+01 1.0566000000e-01 0.0000e+00 1.0000e+00
      -13  1    1    2    0    0 -5.8667556099e+01 -7.8852567547e+01 +9.1731880331e+01 1.3444091111e+02 1.0566000000e-01 0.0000e+00 -1.0000e+00
       13  1    1    2    0    0 +9.3452172296e+01 +5.2431224760e+01 +1.2691827307e+02 1.6610418731e+02 1.0566000000e-01 0.0000e+00 -1.0000e+00
<mgrwt>
<rscale>  0 0.32650464E+03</rscale>
<asrwt>0</asrwt>
<pdfrwt beam="1">  1        2 0.19698942E-01 0.32650464E+03</pdfrwt>
<pdfrwt beam="2">  1       -2 0.84558219E-01 0.32650464E+03</pdfrwt>
<totfact> 0.35684657E+02</totfact>
</mgrwt>
</event>
<event>
 6      1 +1.8175624e-03 3.18114200e+02 7.81860800e-03 1.07652100e-01
        2 -1    0    0  501    0 +0.0000000000e+00 +0.0000000000e+00 +5.9692472114e+02 5.9692472115e+02 2.5500000000e-03 0.0000e+00 -1.0000e+00
       -2 -1    0    0    0  501 -0.0000000000e+00 -0.0000000000e+00 -4.2382491393e+01 4.2382491469e+01 2.5500000000e-03 0.0000e+00 1.0000e+00
      -13  1    1    2    0    0 +4.8104332636e+01 -3.0402826883e+01 +5.1721216865e+01 7.6898986592e+01 1.0566000000e-01 0.0000e+00 1.0000e+00
       13  1    1    2    0    0 -2.8693883254e-01 -7.8637022791e+01 +1.3556447084e+02 1.5672141081e+02 1.0566000000e-01 0.0000e+00 -1.0000e+00
      -13  1    1    2    0    0 -1.3299112777e+01 +1.8494387627e+01 -2.9848467887e+00 2.2974534789e+01 1.0566000000e-01 0.0000e+00 1.0000e+00
       13  1    1    2    0    0 -3.4518281026e+01 +9.0545462046e+01 +3.7024138883e+02 3.8271228043e+02 1.0566000000e-01 0.0000e+00 -1.0000e+00
<mgrwt>
<rscale>  0 0.31811417E+03</rscale>
<asrwt>0</asrwt>
<pdfrwt beam="1">  1        2 0.14923118E+00 0.31811417E+03</pdfrwt>
<pdfrwt beam="2">  1       -2 0.10595623E-01 0.31811417E+03</pdfrwt>
<totfact> 0.16573791E+03</totfact>
</mgrwt>
</event>
<event>
 6      1 +1.8175624e-03 2.20902300e+02 7.81860800e-03 1.13321200e-01
       -2 -1    0    0    0  501 -0.0000000000e+00 +0.0000000000e+00 +1.4176825465e+02 1.4176825468e+02 2.5500000000e-03 0.0000e+00 1.0000e+00
        2 -1    0    0  501    0 +0.0000000000e+00 -0.0000000000e+00 -8.6052135217e+01 8.6052135254e+01 2.5500000000e-03 0.0000e+00 -1.0000e+00
      -13  1    1    2    0    0 -2.8749257763e+01 -3.0969358471e+01 +4.6647613481e+00 4.2513434918e+01 1.0566000000e-01 0.0000e+00 -1.0000e+00
       13  1    1    2    0    0 +3.8378556833e-01 +6.4775957287e+01 +2.3501527509e+01 6.8908670667e+01 1.0566000000e-01 0.0000e+00 1.0000e+00
      -13  1    1    2    0    0 -1.3692894065e+01 +1.3532562866e+01 +4.6476793264e+01 5.0306352300e+01 1.0566000000e-01 0.0000e+00 1.0000e+00
       13  1    1    2    0    0 +4.2058366259e+01 -4.7339161682e+01 -1.8926962683e+01 6.6091932047e+01 1.0566000000e-01 0.0000e+00 -1.0000e+00
<mgrwt>
<rscale>  0 0.22090234E+03</rscale>
<asrwt>0</asrwt>
<pdfrwt beam="1">  1        2 0.21513034E-01 0.22090234E+03</pdfrwt>
<pdfrwt beam="2">  1       -2 0.35442063E-01 0.22090234E+03</pdfrwt>
<totfact> 0.18976580E+03</totfact>
</mgrwt>
</event>
<event>
 6      1 +1.8175624e-03 4.91005300e+02 7.81860800e-03 1.01615400e-01
       -1 -1    0    0    0  501 -0.0000000000e+00 +0.0000000000e+00 +4.1498431992e+02 4.1498431995e+02 5.0400000000e-03 0.0000e+00 1.0000e+00
        1 -1    0    0  501    0 +0.0000000000e+00 -0.0000000000e+00 -1.4523811334e+02 1.4523811343e+02 5.0400000000e-03 0.0000e+00 -1.0000e+00
      -13  1    1    2    0    0 -7.1759434359e+01 -5.8702158118e+01 +2.9548798219e+02 3.0969100499e+02 1.0566000000e-01 0.0000e+00 1.0000e+00
       13  1    1    2    0    0 +7.7637312210e+01 -1.1304994774e+01 +4.9985795699e+01 9.3026588080e+01 1.0566000000e-01 0.0000e+00 1.0000e+00
      -13  1    1    2    0    0 +4.6936276961e+01 +7.2223989926e+00 -5.5422493976e+01 7.2985211822e+01 1.0566000000e-01 0.0000e+00 -1.0000e+00
       13  1    1    2    0    0 -5.2814154812e+01 +6.2784753899e+01 -2.0305077334e+01 8.4519628491e+01 1.0566000000e-01 0.0000e+00 -1.0000e+00
<mgrwt>
<rscale>  0 0.49100525E+03</rscale>
<asrwt>0</asrwt>
<pdfrwt beam="1">  1        1 0.36309529E-01 0.49100525E+03</pdfrwt>
<pdfrwt beam="2">  1       -1 0.10374608E+00 0.49100525E+03</pdfrwt>
<totfact> 0.10851932E+02</totfact>
</mgrwt>
</event>
<event>
 6      1 +1.8175624e-03 1.32889200e+03 7.81860800e-03 9.00696200e-02
       -2 -1    0    0    0  501 -0.0000000000e+00 +0.0000000000e+00 +6.6831650509e+02 6.6831650510e+02 2.5500000000e-03 0.0000e+00 1.0000e+00
        2 -1    0    0  501    0 +0.0000000000e+00 -0.0000000000e+00 -6.6059776185e+02 6.6059776186e+02 2.5500000000e-03 0.0000e+00 -1.0000e+00
      -13  1    1    2    0    0 +5.1502955888e+01 -1.0558827422e+02 +4.4975373363e+01 1.2579440962e+02 1.0566000000e-01 0.0000e+00 1.0000e+00
       13  1    1    2    0    0 +7.7179190369e+01 +5.8036738506e+02 -2.6226054604e+02 6.4153217709e+02 1.0566000000e-01 0.0000e+00 -1.0000e+00
      -13  1    1    2    0    0 -9.1566401651e+01 -3.8103744901e+02 +2.4017869981e+02 4.5963002782e+02 1.0566000000e-01 0.0000e+00 1.0000e+00
       13  1    1    2    0    0 -3.7115744606e+01 -9.3741661821e+01 -1.5174783898e+01 1.0195765243e+02 1.0566000000e-01 0.0000e+00 -1.0000e+00
<mgrwt>
<rscale>  0 0.13288919E+04</rscale>
<asrwt>0</asrwt>
<pdfrwt beam="1">  1        2 0.16514944E+00 0.13288919E+04</pdfrwt>
<pdfrwt beam="2">  1       -2 0.16707913E+00 0.13288919E+04</pdfrwt>
<totfact> 0.48725191E+00</totfact>
</mgrwt>
</event>
<event>
 6      1 +1.8175624e-03 2.23413900e+02 7.81860800e-03 1.13136300e-01
        2 -1    0    0  501    0 +0.0000000000e+00 +0.0000000000e+00 +3.3698446951e+02 3.3698446952e+02 2.5500000000e-03 0.0000e+00 1.0000e+00
       -2 -1    0    0    0  501 -0.0000000000e+00 -0.0000000000e+00 -3.7029740296e+01 3.7029740384e+01 2.5500000000e-03 0.0000e+00 -1.0000e+00
      -13  1    1    2    0    0 -4.3794231207e+01 -1.1091860930e+01 +1.1036082525e+02 1.1924968336e+02 1.0566000000e-01 0.0000e+00 1.0000e+00
       13  1    1    2    0    0 +4.5028451428e+01 -2.4116257659e+01 +3.4917337250e+01 6.1873960001e+01 1.0566000000e-01 0.0000e+00 -1.0000e+00
      -13  1    1    2    0    0 +2.9256732448e+01 +5.7736109433e+01 +1.3602656541e+02 1.5064080585e+02 1.0566000000e-01 0.0000e+00 1.0000e+00
       13  1    1    2    0    0 -3.0490952670e+01 -2.2527990844e+01 +1.8650001297e+01 4.2249760693e+01 1.0566000000e-01 0.0000e+00 -1.0000e+00
<mgrwt>
<rscale>  0 0.22341394E+03</rscale>
<asrwt>0</asrwt>
<pdfrwt beam="1">  1        2 0.84246118E-01 0.22341394E+03</pdfrwt>
<pdfrwt beam="2">  1       -2 0.92574350E-02 0.22341394E+03</pdfrwt>
<totfact> 0.41651949E+03</totfact>
</mgrwt>
</event>
<event>
 6      1 +1.8175624e-03 2.32751700e+02 7.81860800e-03 1.12471800e-01
       -2 -1    0    0    0  501 -0.0000000000e+00 +0.0000000000e+00 +6.5193077483e+01 6.5193077533e+01 2.5500000000e-03 0.0000e+00 1.0000e+00
        2 -1    0    0  501    0 +0.0000000000e+00 -0.0000000000e+00 -2.0774195224e+02 2.0774195226e+02 2.5500000000e-03 0.0000e+00 -1.0000e+00
      -13  1    1    2    0    0 +3.3097097787e+01 +2.0359951221e+01 -1.4140118105e+02 1.4664327691e+02 1.0566000000e-01 0.0000e+00 -1.0000e+00
       13  1    1    2    0    0 -5.4013624287e+00 +2.6114441093e+01 +1.2495139768e+01 2.9449591364e+01 1.0566000000e-01 0.0000e+00 1.0000e+00
      -13  1    1    2    0    0 +1.5149773485e+01 +1.4741985367e+01 -3.7591882260e+00 2.1470547952e+01 1.0566000000e-01 0.0000e+00 1.0000e+00
       13  1    1    2    0    0 -4.2845508843e+01 -6.1216377681e+01 -9.8836452517e+00 7.5371613568e+01 1.0566000000e-01 0.0000e+00 -1.0000e+00
<mgrwt>
<rscale>  0 0.23275169E+03</rscale>
<asrwt>0</asrwt>
<pdfrwt beam="1">  1        2 0.51935486E-01 0.23275169E+03</pdfrwt>
<pdfrwt beam="2">  1       -2 0.16298270E-01 0.23275169E+03</pdfrwt>
<totfact> 0.28385831E+03</totfact>
</mgrwt>
</event>
<event>
 7      1 +1.8175624e-03 9.15625700e+01 7.81860800e-03 1.29911100e-01
       -1 -1    0    0    0  501 -0.0000000000e+00 +0.0000000000e+00 +9.0155286660e+00 9.0155300748e+00 5.0400000000e-03 0.0000e+00 1.0000e+00
        1 -1    0    0  501    0 +0.0000000000e+00 -0.0000000000e+00 -2.3247950999e+02 2.3247951005e+02 5.0400000000e-03 0.0000e+00 -1.0000e+00
       23  2    1    2    0    0 +0.0000000000e+00 +0.0000000000e+00 -2.2346398133e+02 2.4149504012e+02 9.1562565786e+01 0.0000e+00 0.0000e+00
      -13  1    3    3    0    0 +9.5206431730e+00 +2.0634243356e+01 -6.1151001056e+01 6.5237035030e+01 1.0566000000e-01 0.0000e+00 1.0000e+00
       13  1    3    3    0    0 -1.3523954373e+01 -1.8996894179e+01 -2.5725939558e+01 3.4721959341e+01 1.0566000000e-01 0.0000e+00 -1.0000e+00
      -13  1    3    3    0    0 -1.5669191849e+01 +4.7769207051e+00 -5.7696390838e+01 5.9976889086e+01 1.0566000000e-01 0.0000e+00 1.0000e+00
       13  1    3    3    0    0 +1.9672503048e+01 -6.4142698826e+00 -7.8890649876e+01 8.1559156667e+01 1.0566000000e-01 0.0000e+00 -1.0000e+00
<mgrwt>
<rscale>  0 0.91562566E+02</rscale>
<asrwt>0</asrwt>
<pdfrwt beam="1">  1        1 0.58119858E-01 0.91562566E+02</pdfrwt>
<pdfrwt beam="2">  1       -1 0.22538831E-02 0.91562566E+02</pdfrwt>
<totfact> 0.33332774E+04</totfact>
</mgrwt>
</event>
<event>
 6      1 +1.8175624e-03 2.76667400e+02 7.81860800e-03 1.09752300e-01
        2 -1    0    0  501    0 +0.0000000000e+00 +0.0000000000e+00 +8.1914896592e+01 8.1914896632e+01 2.5500000000e-03 0.0000e+00 1.0000e+00
       -2 -1    0    0    0  501 -0.0000000000e+00 -0.0000000000e+00 -2.3361088210e+02 2.3361088211e+02 2.5500000000e-03 0.0000e+00 -1.0000e+00
      -13  1    1    2    0    0 -3.0768386659e+01 +1.3009577219e+01 +1.7335327075e+01 3.7635986049e+01 1.0566000000e-01 0.0000e+00 -1.0000e+00
       13  1    1    2    0    0 +6.2941127755e+00 +7.5336862430e+01 -1.1003587589e+02 1.3350342259e+02 1.0566000000e-01 0.0000e+00 1.0000e+00
      -13  1    1    2    0    0 -4.4735419178e+00 -8.3404834959e+01 -5.9275610464e+00 8.3734856636e+01 1.0566000000e-01 0.0000e+00 -1.0000e+00
       13  1    1    2    0    0 +2.8947815802e+01 -4.9416046898e+00 -5.3067875645e+01 6.0651513470e+01 1.0566000000e-01 0.0000e+00 1.0000e+00
<mgrwt>
<rscale>  0 0.27666739E+03</rscale>
<asrwt>0</asrwt>
<pdfrwt beam="1">  1        2 0.20478725E-01 0.27666739E+03</pdfrwt>
<pdfrwt beam="2">  1       -2 0.58402719E-01 0.27666739E+03</pdfrwt>
<totfact> 0.75675493E+02</totfact>
</mgrwt>
</event>
<event>
 6      1 +1.8175624e-03 1.07775600e+03 7.81860800e-03 9.22714700e-02
       -2 -1    0    0    0  501 -0.0000000000e+00 +0.0000000000e+00 +1.7473232179e+02 1.7473232181e+02 2.5500000000e-03 0.0000e+00 -1.0000e+00
        2 -1    0    0  501    0 +0.0000000000e+00 -0.0000000000e+00 -1.6619116508e+03 1.6619116508e+03 2.5500000000e-03 0.0000e+00 1.0000e+00
      -13  1    1    2    0    0 +7.3564720776e+01 +3.8879697415e+01 -1.8940760492e+02 2.0687834826e+02 1.0566000000e-01 0.0000e+00 1.0000e+00
       13  1    1    2    0    0 +1.5528827628e+01 -4.3820642583e+01 -5.0307994176e+01 6.8500355079e+01 1.0566000000e-01 0.0000e+00 -1.0000e+00
      -13  1    1    2    0    0 +1.6365159310e+02 -3.4477679296e+02 -2.0541601895e+02 4.3341508153e+02 1.0566000000e-01 0.0000e+00 -1.0000e+00
       13  1    1    2    0    0 -2.5274514151e+02 +3.4971773813e+02 -1.0420477110e+03 1.1278501878e+03 1.0566000000e-01 0.0000e+00 1.0000e+00
<mgrwt>
<rscale>  0 0.10777563E+04</rscale>
<asrwt>0</asrwt>
<pdfrwt beam="1">  1        2 0.41547786E+00 0.10777563E+04</pdfrwt>
<pdfrwt beam="2">  1       -2 0.43683085E-01 0.10777563E+04</pdfrwt>
<totfact> 0.13277448E+01</totfact>
</mgrwt>
</event>
<event>
 7      1 +1.8175624e-03 9.32788600e+01 7.81860800e-03 1.29510000e-01
        1 -1    0    0  501    0 +0.0000000000e+00 +0.0000000000e+00 +3.3275742790e+01 3.3275743172e+01 5.0400000000e-03 0.0000e+00 -1.0000e+00
       -1 -1    0    0    0  501 -0.0000000000e+00 -0.0000000000e+00 -6.5370029356e+01 6.5370029550e+01 5.0400000000e-03 0.0000e+00 1.0000e+00
       23  2    1    2    0    0 +0.0000000000e+00 -1.7763568394e-15 -3.2094286565e+01 9.8645772722e+01 9.3278857442e+01 0.0000e+00 0.0000e+00
      -13  1    3    3    0    0 -1.8294644075e+01 +5.8313691292e+00 +2.7529287171e-01 1.9203796967e+01 1.0566000000e-01 0.0000e+00 1.0000e+00
       13  1    3    3    0    0 -8.6724518200e+00 +5.3806032081e+00 +3.5368038765e+00 1.0801965430e+01 1.0566000000e-01 0.0000e+00 -1.0000e+00
      -13  1    3    3    0    0 -1.1443182981e+01 +9.2331261642e+00 -1.2087181535e+01 1.9034394579e+01 1.0566000000e-01 0.0000e+00 -1.0000e+00
       13  1    3    3    0    0 +3.8410278876e+01 -2.0445098502e+01 -2.3819201778e+01 4.9605615745e+01 1.0566000000e-01 0.0000e+00 1.0000e+00
<mgrwt>
<rscale>  0 0.93278857E+02</rscale>
<asrwt>0</asrwt>
<pdfrwt beam="1">  1        1 0.83189359E-02 0.93278857E+02</pdfrwt>
<pdfrwt beam="2">  1       -1 0.16342507E-01 0.93278857E+02</pdfrwt>
<totfact> 0.20467055E+04</totfact>
</mgrwt>
</event>
<event>
 6      1 +1.8175624e-03 6.47872700e+02 7.81860800e-03 9.81077900e-02
       -1 -1    0    0    0  501 -0.0000000000e+00 +0.0000000000e+00 +7.3717229883e+02 7.3717229884e+02 5.0400000000e-03 0.0000e+00 1.0000e+00
        1 -1    0    0  501    0 +0.0000000000e+00 -0.0000000000e+00 -1.4234767310e+02 1.4234767319e+02 5.0400000000e-03 0.0000e+00 -1.0000e+00
      -13  1    1    2    0    0 -1.4770063107e+02 -6.5770312252e+01 +2.5891951219e+02 3.0525486949e+02 1.0566000000e-01 0.0000e+00 1.0000e+00
       13  1    1    2    0    0 +9.7554775115e+00 -2.6561891348e+01 +2.7999172509e+01 3.9807891663e+01 1.0566000000e-01 0.0000e+00 -1.0000e+00
      -13  1    1    2    0    0 -1.2228010480e+02 +2.4960632231e+01 +2.1767166526e+02 2.5091118392e+02 1.0566000000e-01 0.0000e+00 1.0000e+00
       13  1    1    2    0    0 +2.6022525837e+02 +6.7371571369e+01 +9.0234275762e+01 2.8354602696e+02 1.0566000000e-01 0.0000e+00 -1.0000e+00
<mgrwt>
<rscale>  0 0.64787271E+03</rscale>
<asrwt>0</asrwt>
<pdfrwt beam="1">  1        1 0.35586919E-01 0.64787271E+03</pdfrwt>
<pdfrwt beam="2">  1       -1 0.18429307E+00 0.64787271E+03</pdfrwt>
<totfact> 0.24702095E+01</totfact>
</mgrwt>
</event>
<event>
 6      1 +1.8175624e-03 4.30482000e+02 7.81860800e-03 1.03370800e-01
       -2 -1    0    0    0  501 -0.0000000000e+00 +0.0000000000e+00 +4.9935529907e+02 4.9935529908e+02 2.5500000000e-03 0.0000e+00 1.0000e+00
        2 -1    0    0  501    0 +0.0000000000e+00 -0.0000000000e+00 -9.2776994155e+01 9.2776994190e+01 2.5500000000e-03 0.0000e+00 -1.0000e+00
      -13  1    1    2    0    0 +4.1854222107e+00 -4.7383852896e+01 +8.7011575843e+01 9.9165380900e+01 1.0566000000e-01 0.0000e+00 1.0000e+00
       13  1    1    2    0    0 -8.6560061140e+01 +1.7118684936e+02 +1.2697554560e+02 2.3004430426e+02 1.0566000000e-01 0.0000e+00 -1.0000e+00
      -13  1    1    2    0    0 +7.9568476563e+01 -5.7878892698e+01 +1.6347248013e+02 1.9079929666e+02 1.0566000000e-01 0.0000e+00 1.0000e+00
       13  1    1    2    0    0 +2.8061623663e+00 -6.5924103769e+01 +2.9118703340e+01 7.2123311441e+01 1.0566000000e-01 0.0000e+00 -1.0000e+00
<mgrwt>
<rscale>  0 0.43048198E+03</rscale>
<asrwt>0</asrwt>
<pdfrwt beam="1">  1        2 0.23194249E-01 0.43048198E+03</pdfrwt>
<pdfrwt beam="2">  1       -2 0.12483882E+00 0.43048198E+03</pdfrwt>
<totfact> 0.11758056E+02</totfact>
</mgrwt>
</event>
<event>
 6      1 +1.8175624e-03 8.68141100e+02 7.81860800e-03 9.46630700e-02
       -2 -1    0    0    0  501 -0.0000000000e+00 +0.0000000000e+00 +1.5660832351e+02 1.5660832353e+02 2.5500000000e-03 0.0000e+00 -1.0000e+00
        2 -1    0    0  501    0 +0.0000000000e+00 -0.0000000000e+00 -1.2031112777e+03 1.2031112777e+03 2.5500000000e-03 0.0000e+00 1.0000e+00
      -13  1    1    2    0    0 +2.6247339340e+01 -2.4350700541e+01 -6.6902578673e+01 7.5880469400e+01 1.0566000000e-01 0.0000e+00 1.0000e+00
       13  1    1    2    0    0 -9.0304031213e+01 -1.3959921809e+02 -1.6716725508e+02 2.3577035878e+02 1.0566000000e-01 0.0000e+00 -1.0000e+00
      -13  1    1    2    0    0 +2.8115855576e+02 -1.0218899191e+02 -5.0581808128e+02 5.8766033221e+02 1.0566000000e-01 0.0000e+00 -1.0000e+00
       13  1    1    2    0    0 -2.1710186389e+02 +2.6613891053e+02 -3.0661503918e+02 4.6040844086e+02 1.0566000000e-01 0.0000e+00 1.0000e+00
<mgrwt>
<rscale>  0 0.86814110E+03</rscale>
<asrwt>0</asrwt>
<pdfrwt beam="1">  1        2 0.30077779E+00 0.86814110E+03</pdfrwt>
<pdfrwt beam="2">  1       -2 0.39152084E-01 0.86814110E+03</pdfrwt>
<totfact> 0.44351322E+01</totfact>
</mgrwt>
</event>
<event>
 6      1 +1.8175624e-03 1.93292300e+02 7.81860800e-03 1.15552500e-01
       -2 -1    0    0    0  501 -0.0000000000e+00 +0.0000000000e+00 +3.1069990037e+02 3.1069990038e+02 2.5500000000e-03 0.0000e+00 1.0000e+00
        2 -1    0    0  501    0 +0.0000000000e+00 -0.0000000000e+00 -3.0062700097e+01 3.0062700205e+01 2.5500000000e-03 0.0000e+00 -1.0000e+00
      -13  1    1    2    0    0 -1.3422781700e+01 -2.4626158013e+01 +1.7390884978e+01 3.3001102579e+01 1.0566000000e-01 0.0000e+00 1.0000e+00
       13  1    1    2    0    0 +2.4950429154e+01 -1.4034205535e+01 +7.1462791948e+01 7.6983275048e+01 1.0566000000e-01 0.0000e+00 -1.0000e+00
      -13  1    1    2    0    0 -6.3249403175e+01 +2.7840293484e+01 +1.4317381633e+02 1.5897899795e+02 1.0566000000e-01 0.0000e+00 1.0000e+00
       13  1    1    2    0    0 +5.1721755721e+01 +1.0820070065e+01 +4.8609707010e+01 7.1799225000e+01 1.0566000000e-01 0.0000e+00 -1.0000e+00
<mgrwt>
<rscale>  0 0.19329230E+03</rscale>
<asrwt>0</asrwt>
<pdfrwt beam="1">  1        2 0.75156753E-02 0.19329230E+03</pdfrwt>
<pdfrwt beam="2">  1       -2 0.77674973E-01 0.19329230E+03</pdfrwt>
<totfact> 0.13801997E+03</totfact>
</mgrwt>
</event>
<event>
 6      1 +1.8175624e-03 2.92462900e+02 7.81860800e-03 1.08907000e-01
       -2 -1    0    0    0  501 -0.0000000000e+00 +0.0000000000e+00 +1.3032173857e+02 1.3032173859e+02 2.5500000000e-03 0.0000e+00 1.0000e+00
        2 -1    0    0  501    0 +0.0000000000e+00 -0.0000000000e+00 -1.6408346398e+02 1.6408346400e+02 2.5500000000e-03 0.0000e+00 -1.0000e+00
      -13  1    1    2    0    0 +6.4130965801e+00 -1.1523498452e+01 -1.2402608155e+01 1.8103996173e+01 1.0566000000e-01 0.0000e+00 -1.0000e+00
       13  1    1    2    0    0 -6.7455864831e+01 +9.3726711845e+01 -1.2673949650e+01 1.1617069500e+02 1.0566000000e-01 0.0000e+00 1.0000e+00
      -13  1    1    2    0    0 +2.7932058508e+01 -5.5599961479e-01 -5.4189812332e+01 6.0967663172e+01 1.0566000000e-01 0.0000e+00 1.0000e+00
       13  1    1    2    0    0 +3.3110709743e+01 -8.1647213778e+01 +4.5504644720e+01 9.9162848247e+01 1.0566000000e-01 0.0000e+00 -1.0000e+00
<mgrwt>
<rscale>  0 0.29246294E+03</rscale>
<asrwt>0</asrwt>
<pdfrwt beam="1">  1        2 0.41020866E-01 0.29246294E+03</pdfrwt>
<pdfrwt beam="2">  1       -2 0.32580435E-01 0.29246294E+03</pdfrwt>
<totfact> 0.10935878E+03</totfact>
</mgrwt>
</event>
<event>
 6      1 +1.8175624e-03 3.49365300e+02 7.81860800e-03 1.06287600e-01
       -2 -1    0    0    0  501 -0.0000000000e+00 +0.0000000000e+00 +4.0803111225e+02 4.0803111226e+02 2.5500000000e-03 0.0000e+00 1.0000e+00
        2 -1    0    0  501    0 +0.0000000000e+00 -0.0000000000e+00 -7.4783600225e+01 7.4783600269e+01 2.5500000000e-03 0.0000e+00 -1.0000e+00
      -13  1    1    2    0    0 +1.1180809838e+01 -6.0612494491e+01 +1.3538548806e+02 1.4875525718e+02 1.0566000000e-01 0.0000e+00 1.0000e+00
       13  1    1    2    0    0 +4.6294533616e+01 -3.1377862538e+01 +9.1302668558e+01 1.0706980223e+02 1.0566000000e-01 0.0000e+00 -1.0000e+00
      -13  1    1    2    0    0 -4.6982798162e+01 -1.5389696417e+01 +1.0833579504e+02 1.1908350738e+02 1.0566000000e-01 0.0000e+00 1.0000e+00
       13  1    1    2    0    0 -1.0492545292e+01 +1.0738005345e+02 -1.7764396371e+00 1.0790614573e+02 1.0566000000e-01 0.0000e+00 -1.0000e+00
<mgrwt>
<rscale>  0 0.34936534E+03</rscale>
<asrwt>0</asrwt>
<pdfrwt beam="1">  1        2 0.18695900E-01 0.34936534E+03</pdfrwt>
<pdfrwt beam="2">  1       -2 0.10200778E+00 0.34936534E+03</pdfrwt>
<totfact> 0.24639606E+02</totfact>
</mgrwt>
</event>
<event>
 6      1 +1.8175624e-03 2.60444300e+02 7.81860800e-03 1.10687700e-01
        1 -1    0    0  501    0 +0.0000000000e+00 +0.0000000000e+00 +1.5905702187e+02 1.5905702195e+02 5.0400000000e-03 0.0000e+00 -1.0000e+00
       -1 -1    0    0    0  501 -0.0000000000e+00 -0.0000000000e+00 -1.0661466534e+02 1.0661466546e+02 5.0400000000e-03 0.0000e+00 1.0000e+00
      -13  1    1    2    0    0 +4.7797426728e+01 -9.7623340025e+00 -5.1021335140e+01 7.0590969469e+01 1.0566000000e-01 0.0000e+00 1.0000e+00
       13  1    1    2    0    0 -3.8854338994e+00 -2.4854469890e+01 +8.3479668001e+01 8.7187770953e+01 1.0566000000e-01 0.0000e+00 1.0000e+00
      -13  1    1    2    0    0 -4.0403264418e+01 -1.6983950601e+01 -1.3996839598e+01 4.6008706093e+01 1.0566000000e-01 0.0000e+00 -1.0000e+00
       13  1    1    2    0    0 -3.5087284113e+00 +5.1600754493e+01 +3.3980863266e+01 6.1884240899e+01 1.0566000000e-01 0.0000e+00 -1.0000e+00
<mgrwt>
<rscale>  0 0.26044432E+03</rscale>
<asrwt>0</asrwt>
<pdfrwt beam="1">  1        1 0.39764255E-01 0.26044432E+03</pdfrwt>
<pdfrwt beam="2">  1       -1 0.26653667E-01 0.26044432E+03</pdfrwt>
<totfact> 0.13220087E+03</totfact>
</mgrwt>
</event>
<event>
 6      1 +1.8175624e-03 3.81009600e+02 7.81860800e-03 1.05056100e-01
        2 -1    0    0  501    0 +0.0000000000e+00 +0.0000000000e+00 +1.6278882430e+02 1.6278882432e+02 2.5500000000e-03 0.0000e+00 1.0000e+00
       -2 -1    0    0    0  501 -0.0000000000e+00 -0.0000000000e+00 -2.2293958426e+02 2.2293958427e+02 2.5500000000e-03 0.0000e+00 -1.0000e+00
      -13  1    1    2    0    0 -7.5661143430e+01 -7.2930554977e+01 -4.9122512045e+01 1.1600218458e+02 1.0566000000e-01 0.0000e+00 -1.0000e+00
       13  1    1    2    0    0 +1.1280809059e+02 -2.8671594764e+01 +6.4272022405e+01 1.3296100811e+02 1.0566000000e-01 0.0000e+00 1.0000e+00
      -13  1    1    2    0    0 -4.0786774637e+01 +7.5752599437e+01 -6.7987570584e+01 1.0965554352e+02 1.0566000000e-01 0.0000e+00 -1.0000e+00
       13  1    1    2    0    0 +3.6398274748e+00 +2.5849550304e+01 -7.3126997392e+00 2.7109672379e+01 1.0566000000e-01 0.0000e+00 1.0000e+00
<mgrwt>
<rscale>  0 0.38100957E+03</rscale>
<asrwt>0</asrwt>
<pdfrwt beam="1">  1        2 0.40697206E-01 0.38100957E+03</pdfrwt>
<pdfrwt beam="2">  1       -2 0.55734896E-01 0.38100957E+03</pdfrwt>
<totfact> 0.38744761E+02</totfact>
</mgrwt>
</event>
<event>
 6      1 +1.8175624e-03 2.38816300e+02 7.81860800e-03 1.12058400e-01
       -1 -1    0    0    0  501 -0.0000000000e+00 +0.0000000000e+00 +4.2063571873e+01 4.2063572175e+01 5.0400000000e-03 0.0000e+00 -1.0000e+00
        1 -1    0    0  501    0 +0.0000000000e+00 -0.0000000000e+00 -3.3897040507e+02 3.3897040510e+02 5.0400000000e-03 0.0000e+00 1.0000e+00
      -13  1    1    2    0    0 -1.4423832706e+01 -2.1099513067e+01 +1.5107819174e+01 2.9689960690e+01 1.0566000000e-01 0.0000e+00 -1.0000e+00
       13  1    1    2    0    0 +3.8274560639e+01 +5.7534794514e+01 -1.0555047468e+02 1.2615906008e+02 1.0566000000e-01 0.0000e+00 1.0000e+00
      -13  1    1    2    0    0 -1.8271838558e+00 -5.5563895017e+01 -9.6015489238e+01 1.1094895388e+02 1.0566000000e-01 0.0000e+00 -1.0000e+00
       13  1    1    2    0    0 -2.2023544077e+01 +1.9128613570e+01 -1.1044868845e+02 1.1423600262e+02 1.0566000000e-01 0.0000e+00 1.0000e+00
<mgrwt>
<rscale>  0 0.23881630E+03</rscale>
<asrwt>0</asrwt>
<pdfrwt beam="1">  1        1 0.84742593E-01 0.23881630E+03</pdfrwt>
<pdfrwt beam="2">  1       -1 0.10515894E-01 0.23881630E+03</pdfrwt>
<totfact> 0.22213367E+03</totfact>
</mgrwt>
</event>
<event>
 6      1 +1.8175624e-03 2.42556900e+02 7.81860800e-03 1.11810100e-01
        2 -1    0    0  501    0 +0.0000000000e+00 +0.0000000000e+00 +1.0028860644e+03 1.0028860644e+03 2.5500000000e-03 0.0000e+00 1.0000e+00
       -2 -1    0    0    0  501 -0.0000000000e+00 -0.0000000000e+00 -1.4666136245e+01 1.4666136466e+01 2.5500000000e-03 0.0000e+00 -1.0000e+00
      -13  1    1    2    0    0 +1.9922704144e+01 +5.9327559503e+01 +1.5676512737e+02 1.6879570427e+02 1.0566000000e-01 0.0000e+00 -1.0000e+00
       13  1    1    2    0    0 -4.5285055222e+01 -6.5550683335e+01 +3.3995397269e+02 3.4916520878e+02 1.0566000000e-01 0.0000e+00 1.0000e+00
      -13  1    1    2    0    0 -3.1760803396e+01 +5.8490996182e+00 +1.6498069426e+02 1.6811187121e+02 1.0566000000e-01 0.0000e+00 1.0000e+00
       13  1    1    2    0    0 +5.7123154474e+01 +3.7402421339e-01 +3.2652013387e+02 3.3147941664e+02 1.0566000000e-01 0.0000e+00 -1.0000e+00
<mgrwt>
<rscale>  0 0.24255691E+03</rscale>
<asrwt>0</asrwt>
<pdfrwt beam="1">  1        2 0.25072154E+00 0.24255691E+03</pdfrwt>
<pdfrwt beam="2">  1       -2 0.36665337E-02 0.24255691E+03</pdfrwt>
<totfact> 0.36437837E+03</totfact>
</mgrwt>
</event>
<event>
 6      1 +1.8175624e-03 3.98008600e+02 7.81860800e-03 1.04447100e-01
        2 -1    0    0  501    0 +0.0000000000e+00 +0.0000000000e+00 +1.3722349017e+02 1.3722349019e+02 2.5500000000e-03 0.0000e+00 1.0000e+00
       -2 -1    0    0    0  501 -0.0000000000e+00 -0.0000000000e+00 -2.8860004561e+02 2.8860004562e+02 2.5500000000e-03 0.0000e+00 -1.0000e+00
      -13  1    1    2    0    0 +1.3695546304e+02 -2.9623092658e+01 -1.0193142496e+02 1.7327536764e+02 1.0566000000e-01 0.0000e+00 -1.0000e+00
       13  1    1    2    0    0 -1.9024261687e+01 -5.1544045991e+00 -8.6583086335e+01 8.8798268130e+01 1.0566000000e-01 0.0000e+00 1.0000e+00
      -13  1    1    2    0    0 -4.4690559696e+00 -2.3284256479e+01 +2.6939939729e+01 3.5887331716e+01 1.0566000000e-01 0.0000e+00 -1.0000e+00
       13  1    1    2    0    0 -1.1346214538e+02 +5.8061753737e+01 +1.0198016128e+01 1.2786256832e+02 1.0566000000e-01 0.0000e+00 1.0000e+00
<mgrwt>
<rscale>  0 0.39800857E+03</rscale>
<asrwt>0</asrwt>
<pdfrwt beam="1">  1        2 0.34305873E-01 0.39800857E+03</pdfrwt>
<pdfrwt beam="2">  1       -2 0.72150010E-01 0.39800857E+03</pdfrwt>
<totfact> 0.27062881E+02</totfact>
</mgrwt>
</event>
<event>
 6      1 +1.8175624e-03 1.30190300e+02 7.81860800e-03 1.22717400e-01
       -2 -1    0    0    0  501 -0.0000000000e+00 +0.0000000000e+00 +1.5582648013e+01 1.5582648221e+01 2.5500000000e-03 0.0000e+00 1.0000e+00
        2 -1    0    0  501    0 +0.0000000000e+00 -0.0000000000e+00 -2.7192930010e+02 2.7192930011e+02 2.5500000000e-03 0.0000e+00 -1.0000e+00
      -13  1    1    2    0    0 +3.6240272322e+01 +3.1898722765e+00 -1.6446277921e+02 1.6843856308e+02 1.0566000000e-01 0.0000e+00 1.0000e+00
       13  1    1    2    0    0 -2.4118150719e+01 +7.1369885206e+00 -3.1203519139e+01 4.0078579939e+01 1.0566000000e-01 0.0000e+00 -1.0000e+00
      -13  1    1    2    0    0 +7.2834216648e+00 +1.0755803510e+01 -1.2910304404e+00 1.3054250799e+01 1.0566000000e-01 0.0000e+00 1.0000e+00
       13  1    1    2    0    0 -1.9405543268e+01 -2.1082664307e+01 -5.9389323294e+01 6.5940554511e+01 1.0566000000e-01 0.0000e+00 -1.0000e+00
<mgrwt>
<rscale>  0 0.13019030E+03</rscale>
<asrwt>0</asrwt>
<pdfrwt beam="1">  1        2 0.67982310E-01 0.13019030E+03</pdfrwt>
<pdfrwt beam="2">  1       -2 0.38956629E-02 0.13019030E+03</pdfrwt>
<totfact> 0.19151379E+04</totfact>
</mgrwt>
</event>
<event>
 6      1 +1.8175624e-03 1.35583100e+02 7.81860800e-03 1.21939900e-01
        2 -1    0    0  501    0 +0.0000000000e+00 +0.0000000000e+00 +1.5616341923e+02 1.5616341926e+02 2.5500000000e-03 0.0000e+00 1.0000e+00
       -2 -1    0    0    0  501 -0.0000000000e+00 -0.0000000000e+00 -2.9428733126e+01 2.9428733237e+01 2.5500000000e-03 0.0000e+00 -1.0000e+00
      -13  1    1    2    0    0 -1.7606439665e+01 -3.2922323810e+01 +1.0489826473e+01 3.8780326794e+01 1.0566000000e-01 0.0000e+00 -1.0000e+00
       13  1    1    2    0    0 +1.4475911257e+00 +1.9135137219e+01 +5.4848189019e+01 5.8108381488e+01 1.0566000000e-01 0.0000e+00 1.0000e+00
      -13  1    1    2    0    0 -1.7425848535e+01 -1.1814739355e+01 +2.6995447175e+01 3.4234684100e+01 1.0566000000e-01 0.0000e+00 1.0000e+00
       13  1    1    2    0    0 +3.3584697075e+01 +2.5601925946e+01 +3.4401223441e+01 5.4468760111e+01 1.0566000000e-01 0.0000e+00 -1.0000e+00
<mgrwt>
<rscale>  0 0.13558306E+03</rscale>
<asrwt>0</asrwt>
<pdfrwt beam="1">  1        2 0.39040855E-01 0.13558306E+03</pdfrwt>
<pdfrwt beam="2">  1       -2 0.73571833E-02 0.13558306E+03</pdfrwt>
<totfact> 0.13294951E+04</totfact>
</mgrwt>
</event>
<event>
 6      1 +1.8175624e-03 4.58454100e+02 7.81860800e-03 1.02523100e-01
       -1 -1    0    0    0  501 -0.0000000000e+00 +0.0000000000e+00 +8.6853616184e+01 8.6853616330e+01 5.0400000000e-03 0.0000e+00 1.0000e+00
        1 -1    0    0  501    0 +0.0000000000e+00 -0.0000000000e+00 -6.0498396355e+02 6.0498396357e+02 5.0400000000e-03 0.0000e+00 -1.0000e+00
      -13  1    1    2    0    0 -2.7870675357e+00 +1.1247286218e+02 -7.1582192419e+01 1.3334891791e+02 1.0566000000e-01 0.0000e+00 1.0000e+00
       13  1    1    2    0    0 +6.7661418338e+01 -1.2567597487e+02 -4.1131179350e+02 4.3537331203e+02 1.0566000000e-01 0.0000e+00 -1.0000e+00
      -13  1    1    2    0    0 +1.0802673155e+01 +3.7070799879e+01 -1.1726223629e+01 4.0354150165e+01 1.0566000000e-01 0.0000e+00 -1.0000e+00
       13  1    1    2    0    0 -7.5677023958e+01 -2.3867687187e+01 -2.3510137812e+01 8.2761199790e+01 1.0566000000e-01 0.0000e+00 1.0000e+00
<mgrwt>
<rscale>  0 0.45845412E+03</rscale>
<asrwt>0</asrwt>
<pdfrwt beam="1">  1        1 0.15124598E+00 0.45845412E+03</pdfrwt>
<pdfrwt beam="2">  1       -1 0.21713406E-01 0.45845412E+03</pdfrwt>
<totfact> 0.28646659E+02</totfact>
</mgrwt>
</event>
<event>
 6      1 +1.8175624e-03 2.70728800e+02 7.81860800e-03 1.10086300e-01
        2 -1    0    0  501    0 +0.0000000000e+00 +0.0000000000e+00 +1.1069412573e+02 1.1069412576e+02 2.5500000000e-03 0.0000e+00 -1.0000e+00
       -2 -1    0    0    0  501 -0.0000000000e+00 -0.0000000000e+00 -1.6553293516e+02 1.6553293518e+02 2.5500000000e-03 0.0000e+00 1.0000e+00
      -13  1    1    2    0    0 +5.1980540432e+01 -1.9140187532e-01 -2.1848722642e+01 5.6386089272e+01 1.0566000000e-01 0.0000e+00 1.0000e+00
       13  1    1    2    0    0 +4.2867824353e+01 +2.4409584850e+01 +4.4268845768e+01 6.6281370437e+01 1.0566000000e-01 0.0000e+00 -1.0000e+00
      -13  1    1    2    0    0 -4.8564595718e+01 -3.0146359154e+01 -8.8693356421e+01 1.0551703922e+02 1.0566000000e-01 0.0000e+00 1.0000e+00
       13  1    1    2    0    0 -4.6283769067e+01 +5.9281761795e+00 +1.1434423869e+01 4.8042562017e+01 1.0566000000e-01 0.0000e+00 -1.0000e+00
<mgrwt>
<rscale>  0 0.27072882E+03</rscale>
<asrwt>0</asrwt>
<pdfrwt beam="1">  1        2 0.27673532E-01 0.27072882E+03</pdfrwt>
<pdfrwt beam="2">  1       -2 0.41383234E-01 0.27072882E+03</pdfrwt>
<totfact> 0.10708058E+03</totfact>
</mgrwt>
</event>
<event>
 6      1 +1.8175624e-03 4.79589000e+02 7.81860800e-03 1.01924800e-01
       -2 -1    0    0    0  501 -0.0000000000e+00 +0.0000000000e+00 +1.3827650125e+02 1.3827650128e+02 2.5500000000e-03 0.0000e+00 -1.0000e+00
        2 -1    0    0  501    0 +0.0000000000e+00 -0.0000000000e+00 -4.1584355929e+02 4.1584355930e+02 2.5500000000e-03 0.0000e+00 1.0000e+00
      -13  1    1    2    0    0 +5.8872341593e+01 +3.8783950775e+01 +3.8373057070e+01 8.0266120595e+01 1.0566000000e-01 0.0000e+00 -1.0000e+00
       13  1    1    2    0    0 +1.9202786078e+01 -1.4872543462e+02 -2.5396292694e+02 2.9493250299e+02 1.0566000000e-01 0.0000e+00 1.0000e+00
      -13  1    1    2    0    0 -2.7482191601e+01 -1.5443660971e+01 -2.0058495250e+01 3.7364848656e+01 1.0566000000e-01 0.0000e+00 -1.0000e+00
       13  1    1    2    0    0 -5.0592936070e+01 +1.2538514482e+02 -4.1918692918e+01 1.4155658833e+02 1.0566000000e-01 0.0000e+00 1.0000e+00
<mgrwt>
<rscale>  0 0.47958896E+03</rscale>
<asrwt>0</asrwt>
<pdfrwt beam="1">  1        2 0.10396089E+00 0.47958896E+03</pdfrwt>
<pdfrwt beam="2">  1       -2 0.34569126E-01 0.47958896E+03</pdfrwt>
<totfact> 0.34225068E+02</totfact>
</mgrwt>
</event>
<event>
 6      1 +1.8175624e-03 5.15407800e+02 7.81860800e-03 1.00983400e-01
        2 -1    0    0  501    0 +0.0000000000e+00 +0.0000000000e+00 +5.2562321949e+02 5.2562321950e+02 2.5500000000e-03 0.0000e+00 1.0000e+00
       -2 -1    0    0    0  501 -0.0000000000e+00 -0.0000000000e+00 -1.2634773824e+02 1.2634773827e+02 2.5500000000e-03 0.0000e+00 -1.0000e+00
      -13  1    1    2    0    0 -2.0929643997e+01 -8.3893294709e+01 +1.3473451281e+01 8.7508170753e+01 1.0566000000e-01 0.0000e+00 -1.0000e+00
       13  1    1    2    0    0 -1.0260631640e+02 +1.9138129792e+02 +2.8301632940e+02 3.5672554048e+02 1.0566000000e-01 0.0000e+00 1.0000e+00
      -13  1    1    2    0    0 +8.2053222100e+01 -1.1042427152e+02 +6.7705328653e+01 1.5333060259e+02 1.0566000000e-01 0.0000e+00 -1.0000e+00
       13  1    1    2    0    0 +4.1482738299e+01 +2.9362683054e+00 +3.5080371916e+01 5.4406643952e+01 1.0566000000e-01 0.0000e+00 1.0000e+00
<mgrwt>
<rscale>  0 0.51540782E+03</rscale>
<asrwt>0</asrwt>
<pdfrwt beam="1">  1        2 0.13140580E+00 0.51540782E+03</pdfrwt>
<pdfrwt beam="2">  1       -2 0.31586935E-01 0.51540782E+03</pdfrwt>
<totfact> 0.29938391E+02</totfact>
</mgrwt>
</event>
<event>
 6      1 +1.8175624e-03 3.95464800e+02 7.81860800e-03 1.04536100e-01
       -1 -1    0    0    0  501 -0.0000000000e+00 +0.0000000000e+00 +7.3887413860e+01 7.3887414032e+01 5.0400000000e-03 0.0000e+00 1.0000e+00
        1 -1    0    0  501    0 +0.0000000000e+00 -0.0000000000e+00 -5.2915772609e+02 5.2915772611e+02 5.0400000000e-03 0.0000e+00 -1.0000e+00
      -13  1    1    2    0    0 +9.6105273030e+01 +5.2610603315e+01 -2.3689528013e+02 2.6100475857e+02 1.0566000000e-01 0.0000e+00 1.0000e+00
       13  1    1    2    0    0 +6.8258986514e+01 -1.5207578850e+01 -1.0354231925e+02 1.2494631941e+02 1.0566000000e-01 0.0000e+00 -1.0000e+00
      -13  1    1    2    0    0 -3.1559611264e+01 +1.4552802953e+01 -4.8879947239e+01 5.9975441166e+01 1.0566000000e-01 0.0000e+00 1.0000e+00
       13  1    1    2    0    0 -1.3280464828e+02 -5.1955827418e+01 -6.5952765606e+01 1.5711862099e+02 1.0566000000e-01 0.0000e+00 -1.0000e+00
<mgrwt>
<rscale>  0 0.39546477E+03</rscale>
<asrwt>0</asrwt>
<pdfrwt beam="1">  1        1 0.13228942E+00 0.39546477E+03</pdfrwt>
<pdfrwt beam="2">  1       -1 0.18471855E-01 0.39546477E+03</pdfrwt>
<totfact> 0.47039506E+02</totfact>
</mgrwt>
</event>
<event>
 6      1 +1.8175624e-03 2.88240400e+02 7.81860800e-03 1.09127100e-01
        2 -1    0    0  501    0 +0.0000000000e+00 +0.0000000000e+00 +8.2647022241e+02 8.2647022242e+02 2.5500000000e-03 0.0000e+00 -1.0000e+00
       -2 -1    0    0    0  501 -0.0000000000e+00 -0.0000000000e+00 -2.5131742343e+01 2.5131742473e+01 2.5500000000e-03 0.0000e+00 1.0000e+00
      -13  1    1    2    0    0 -1.5322421518e+01 -3.7675896528e+01 +1.4557902177e+01 4.3199461342e+01 1.0566000000e-01 0.0000e+00 1.0000e+00
       13  1    1    2    0    0 +2.6015972874e+01 +6.3270452482e+01 +2.0145203935e+02 2.1275083155e+02 1.0566000000e-01 0.0000e+00 -1.0000e+00
      -13  1    1    2    0    0 -5.3877746623e+01 +9.3907648805e+00 +2.7494614513e+02 2.8033264515e+02 1.0566000000e-01 0.0000e+00 1.0000e+00
       13  1    1    2    0    0 +4.3184195268e+01 -3.4985320835e+01 +3.1038239340e+02 3.1531902685e+02 1.0566000000e-01 0.0000e+00 -1.0000e+00
<mgrwt>
<rscale>  0 0.28824043E+03</rscale>
<asrwt>0</asrwt>
<pdfrwt beam="1">  1        2 0.20661755E+00 0.28824043E+03</pdfrwt>
<pdfrwt beam="2">  1       -2 0.62829358E-02 0.28824043E+03</pdfrwt>
<totfact> 0.22887639E+03</totfact>
</mgrwt>
</event>
<event>
 6      1 +1.8175624e-03 4.88134200e+02 7.81860800e-03 1.01692300e-01
       -2 -1    0    0    0  501 -0.0000000000e+00 +0.0000000000e+00 +8.4894619243e+01 8.4894619281e+01 2.5500000000e-03 0.0000e+00 1.0000e+00
        2 -1    0    0  501    0 +0.0000000000e+00 -0.0000000000e+00 -7.0167883261e+02 7.0167883261e+02 2.5500000000e-03 0.0000e+00 -1.0000e+00
      -13  1    1    2    0    0 +1.3802423897e+02 -1.1815322610e+02 -9.6002109774e+01 2.0549280189e+02 1.0566000000e-01 0.0000e+00 1.0000e+00
       13  1    1    2    0    0 -1.1508990423e+02 +7.8736441377e+01 -4.7335269562e+02 4.9346519520e+02 1.0566000000e-01 0.0000e+00 -1.0000e+00
      -13  1    1    2    0    0 -3.5297837761e+00 +4.9489641022e+01 -4.2201358973e+01 6.5135626237e+01 1.0566000000e-01 0.0000e+00 1.0000e+00
       13  1    1    2    0    0 -1.9404550969e+01 -1.0072856295e+01 -5.2280490001e+00 2.2479828572e+01 1.0566000000e-01 0.0000e+00 -1.0000e+00
<mgrwt>
<rscale>  0 0.48813423E+03</rscale>
<asrwt>0</asrwt>
<pdfrwt beam="1">  1        2 0.17541969E+00 0.48813423E+03</pdfrwt>
<pdfrwt beam="2">  1       -2 0.21223657E-01 0.48813423E+03</pdfrwt>
<totfact> 0.40479829E+02</totfact>
</mgrwt>
</event>
<event>
 6      1 +1.8175624e-03 3.13897300e+02 7.81860800e-03 1.07849300e-01
        2 -1    0    0  501    0 +0.0000000000e+00 +0.0000000000e+00 +1.7448998758e+02 1.7448998760e+02 2.5500000000e-03 0.0000e+00 1.0000e+00
       -2 -1    0    0    0  501 -0.0000000000e+00 -0.0000000000e+00 -1.4117073674e+02 1.4117073676e+02 2.5500000000e-03 0.0000e+00 -1.0000e+00
      -13  1    1    2    0    0 -5.8262533669e+01 -5.0232346588e+01 -2.6637159279e+00 7.6973489072e+01 1.0566000000e-01 0.0000e+00 1.0000e+00
       13  1    1    2    0    0 +2.0711243123e+01 +2.5061914678e+01 +1.0421939611e+02 1.0917302253e+02 1.0566000000e-01 0.0000e+00 1.0000e+00
      -13  1    1    2    0    0 -5.6929463948e+00 +5.6406754995e+01 -3.3384006123e+01 6.5792360321e+01 1.0566000000e-01 0.0000e+00 -1.0000e+00
       13  1    1    2    0    0 +4.3244236941e+01 -3.1236323085e+01 -3.4852423225e+01 6.3721852430e+01 1.0566000000e-01 0.0000e+00 -1.0000e+00
<mgrwt>
<rscale>  0 0.31389731E+03</rscale>
<asrwt>0</asrwt>
<pdfrwt beam="1">  1        2 0.43622497E-01 0.31389731E+03</pdfrwt>
<pdfrwt beam="2">  1       -2 0.35292684E-01 0.31389731E+03</pdfrwt>
<totfact> 0.88182031E+02</totfact>
</mgrwt>
</event>
<event>
 6      1 +1.8175624e-03 2.69144600e+02 7.81860800e-03 1.10177000e-01
        1 -1    0    0  501    0 +0.0000000000e+00 +0.0000000000e+00 +3.3016346325e+02 3.3016346328e+02 5.0400000000e-03 0.0000e+00 -1.0000e+00
       -1 -1    0    0    0  501 -0.0000000000e+00 -0.0000000000e+00 -5.4850734015e+01 5.4850734246e+01 5.0400000000e-03 0.0000e+00 1.0000e+00
      -13  1    1    2    0    0 -2.9222480325e+01 -5.5152549755e+01 -1.2702328437e+00 6.2429013738e+01 1.0566000000e-01 0.0000e+00 1.0000e+00
       13  1    1    2    0    0 +1.7338090489e+01 -3.9359164870e+01 +5.8329681892e+01 7.2471485391e+01 1.0566000000e-01 0.0000e+00 -1.0000e+00
      -13  1    1    2    0    0 +2.6110406048e+01 +9.3322068550e+01 +1.3815419010e+02 1.6875234277e+02 1.0566000000e-01 0.0000e+00 1.0000e+00
       13  1    1    2    0    0 -1.4226016212e+01 +1.1896460754e+00 +8.0099090079e+01 8.1361355634e+01 1.0566000000e-01 0.0000e+00 -1.0000e+00
<mgrwt>
<rscale>  0 0.26914463E+03</rscale>
<asrwt>0</asrwt>
<pdfrwt beam="1">  1        1 0.82540864E-01 0.26914463E+03</pdfrwt>
<pdfrwt beam="2">  1       -1 0.13712684E-01 0.26914463E+03</pdfrwt>
<totfact> 0.15217296E+03</totfact>
</mgrwt>
</event>
<event>
 6      1 +1.8175624e-03 6.58535100e+02 7.81860800e-03 9.79089400e-02
       -2 -1    0    0    0  501 -0.0000000000e+00 +0.0000000000e+00 +1.2704174114e+02 1.2704174116e+02 2.5500000000e-03 0.0000e+00 1.0000e+00
        2 -1    0    0  501    0 +0.0000000000e+00 -0.0000000000e+00 -8.5339765921e+02 8.5339765921e+02 2.5500000000e-03 0.0000e+00 -1.0000e+00
      -13  1    1    2    0    0 +4.7839139344e+01 -6.2801878402e+01 -4.7123668609e+02 4.7780402328e+02 1.0566000000e-01 0.0000e+00 -1.0000e+00
       13  1    1    2    0    0 -8.5468233023e+00 +7.5179515715e+00 -1.5623663247e+01 1.9330747572e+01 1.0566000000e-01 0.0000e+00 1.0000e+00
      -13  1    1    2    0    0 -2.0781810254e+02 -5.0074498411e+01 -7.9187242573e+01 2.2796150922e+02 1.0566000000e-01 0.0000e+00 1.0000e+00
       13  1    1    2    0    0 +1.6852578650e+02 +1.0535842524e+02 -1.6030832616e+02 2.5534312030e+02 1.0566000000e-01 0.0000e+00 -1.0000e+00
<mgrwt>
<rscale>  0 0.65853512E+03</rscale>
<asrwt>0</asrwt>
<pdfrwt beam="1">  1        2 0.21334940E+00 0.65853512E+03</pdfrwt>
<pdfrwt beam="2">  1       -2 0.31760438E-01 0.65853512E+03</pdfrwt>
<totfact> 0.13879171E+02</totfact>
</mgrwt>
</event>
<event>
 6      1 +1.8175624e-03 3.59863800e+02 7.81860800e-03 1.05863800e-01
       -3 -1    0    0    0  501 -0.0000000000e+00 +0.0000000000e+00 +1.5785920639e+02 1.5785923870e+02 1.0100000000e-01 0.0000e+00 -1.0000e+00
        3 -1    0    0  501    0 +0.0000000000e+00 -0.0000000000e+00 -2.0509087651e+02 2.0509090138e+02 1.0100000000e-01 0.0000e+00 1.0000e+00
      -13  1    1    2    0    0 -9.5273176943e+01 -1.3545868497e+01 +4.6524157066e+01 1.0688768476e+02 1.0566000000e-01 0.0000e+00 -1.0000e+00
       13  1    1    2    0    0 +9.6253439396e+00 +2.5223222844e+01 +5.5817455497e+01 6.2003691171e+01 1.0566000000e-01 0.0000e+00 -1.0000e+00
      -13  1    1    2    0    0 -1.5494524828e+01 -1.5616736952e+01 -3.3171112380e+01 3.9803223905e+01 1.0566000000e-01 0.0000e+00 1.0000e+00
       13  1    1    2    0    0 +1.0114235783e+02 +3.9393826040e+00 -1.1640217030e+02 1.5425554025e+02 1.0566000000e-01 0.0000e+00 1.0000e+00
<mgrwt>
<rscale>  0 0.35986383E+03</rscale>
<asrwt>0</asrwt>
<pdfrwt beam="1">  1        3 0.51272726E-01 0.35986383E+03</pdfrwt>
<pdfrwt beam="2">  1       -3 0.39464809E-01 0.35986383E+03</pdfrwt>
<totfact> 0.61570109E+01</totfact>
</mgrwt>
</event>
<event>
 6      1 +1.8175624e-03 3.93043500e+02 7.81860800e-03 1.04621500e-01
       -3 -1    0    0    0  501 -0.0000000000e+00 +0.0000000000e+00 +1.3094984607e+02 1.3094988502e+02 1.0100000000e-01 0.0000e+00 1.0000e+00
        3 -1    0    0  501    0 +0.0000000000e+00 -0.0000000000e+00 -2.9492810654e+02 2.9492812384e+02 1.0100000000e-01 0.0000e+00 -1.0000e+00
      -13  1    1    2    0    0 -1.5498680419e+02 -6.2927105580e+01 -3.1870482173e+01 1.7028349564e+02 1.0566000000e-01 0.0000e+00 1.0000e+00
       13  1    1    2    0    0 -7.3518856492e+00 +1.8866097331e+01 +6.4388226852e-01 2.0258469822e+01 1.0566000000e-01 0.0000e+00 -1.0000e+00
      -13  1    1    2    0    0 +1.1298965985e+02 +1.1470080930e+01 -3.1131694115e+01 1.1776000820e+02 1.0566000000e-01 0.0000e+00 1.0000e+00
       13  1    1    2    0    0 +4.9349029988e+01 +3.2590927318e+01 -1.0161996646e+02 1.1757603519e+02 1.0566000000e-01 0.0000e+00 -1.0000e+00
<mgrwt>
<rscale>  0 0.39304352E+03</rscale>
<asrwt>0</asrwt>
<pdfrwt beam="1">  1        3 0.73732033E-01 0.39304352E+03</pdfrwt>
<pdfrwt beam="2">  1       -3 0.32737469E-01 0.39304352E+03</pdfrwt>
<totfact> 0.41272000E+01</totfact>
</mgrwt>
</event>
<event>
 6      1 +1.8175624e-03 5.09971000e+02 7.81860800e-03 1.01120900e-01
        1 -1    0    0  501    0 +0.0000000000e+00 +0.0000000000e+00 +6.3758750349e+02 6.3758750351e+02 5.0400000000e-03 0.0000e+00 -1.0000e+00
       -1 -1    0    0    0  501 -0.0000000000e+00 -0.0000000000e+00 -1.0197440367e+02 1.0197440379e+02 5.0400000000e-03 0.0000e+00 1.0000e+00
      -13  1    1    2    0    0 +6.7736339083e+01 +4.5025096699e+00 +1.1936792472e+02 1.3732150903e+02 1.0566000000e-01 0.0000e+00 1.0000e+00
       13  1    1    2    0    0 +4.4742284570e+00 +1.3030349880e+01 -1.7267612798e+01 2.2090503707e+01 1.0566000000e-01 0.0000e+00 -1.0000e+00
      -13  1    1    2    0    0 +6.7261433424e+01 -8.8853841767e+01 -7.9436933754e+00 1.1172385176e+02 1.0566000000e-01 0.0000e+00 1.0000e+00
       13  1    1    2    0    0 -1.3947200096e+02 +7.1320982218e+01 +4.4145648127e+02 4.6842604280e+02 1.0566000000e-01 0.0000e+00 -1.0000e+00
<mgrwt>
<rscale>  0 0.50997100E+03</rscale>
<asrwt>0</asrwt>
<pdfrwt beam="1">  1        1 0.15939687E+00 0.50997100E+03</pdfrwt>
<pdfrwt beam="2">  1       -1 0.25493601E-01 0.50997100E+03</pdfrwt>
<totfact> 0.19843161E+02</totfact>
</mgrwt>
</event>
<event>
 6      1 +1.8175624e-03 6.51858200e+02 7.81860800e-03 9.80329900e-02
       -2 -1    0    0    0  501 -0.0000000000e+00 +0.0000000000e+00 +1.4773406020e+02 1.4773406022e+02 2.5500000000e-03 0.0000e+00 -1.0000e+00
        2 -1    0    0  501    0 +0.0000000000e+00 -0.0000000000e+00 -7.1906088993e+02 7.1906088994e+02 2.5500000000e-03 0.0000e+00 1.0000e+00
      -13  1    1    2    0    0 +8.2184479017e+00 -1.2045417651e+01 +3.0805900493e+00 1.4904233338e+01 1.0566000000e-01 0.0000e+00 -1.0000e+00
       13  1    1    2    0    0 +2.5517629919e+02 -2.1108118970e+01 -3.1804894398e+02 4.0830826380e+02 1.0566000000e-01 0.0000e+00 1.0000e+00
      -13  1    1    2    0    0 -8.3843105648e+01 +9.8616188578e+01 -7.2962706790e+00 1.2964592452e+02 1.0566000000e-01 0.0000e+00 -1.0000e+00
       13  1    1    2    0    0 -1.7955164144e+02 -6.5462651957e+01 -2.4906220512e+02 3.1393652850e+02 1.0566000000e-01 0.0000e+00 1.0000e+00
<mgrwt>
<rscale>  0 0.65185822E+03</rscale>
<asrwt>0</asrwt>
<pdfrwt beam="1">  1        2 0.17976521E+00 0.65185822E+03</pdfrwt>
<pdfrwt beam="2">  1       -2 0.36933517E-01 0.65185822E+03</pdfrwt>
<totfact> 0.13953068E+02</totfact>
</mgrwt>
</event>
<event>
 6      1 +1.8175624e-03 3.70172800e+02 7.81860800e-03 1.05462700e-01
        2 -1    0    0  501    0 +0.0000000000e+00 +0.0000000000e+00 +3.1900016295e+02 3.1900016296e+02 2.5500000000e-03 0.0000e+00 1.0000e+00
       -2 -1    0    0    0  501 -0.0000000000e+00 -0.0000000000e+00 -1.0738859420e+02 1.0738859423e+02 2.5500000000e-03 0.0000e+00 -1.0000e+00
      -13  1    1    2    0    0 -1.3841045425e+01 -1.2458580973e+01 -3.6865225480e+01 4.1301898166e+01 1.0566000000e-01 0.0000e+00 -1.0000e+00
       13  1    1    2    0    0 -9.4275458919e+00 +5.0067138474e+01 +2.5691553949e+02 2.6191831278e+02 1.0566000000e-01 0.0000e+00 1.0000e+00
      -13  1    1    2    0    0 +5.8440267277e+01 +7.9543665557e-01 -3.1295454840e+01 6.6297165976e+01 1.0566000000e-01 0.0000e+00 -1.0000e+00
       13  1    1    2    0    0 -3.5171675960e+01 -3.8403994157e+01 +2.2856709585e+01 5.6871380273e+01 1.0566000000e-01 0.0000e+00 1.0000e+00
<mgrwt>
<rscale>  0 0.37017282E+03</rscale>
<asrwt>0</asrwt>
<pdfrwt beam="1">  1        2 0.79750040E-01 0.37017282E+03</pdfrwt>
<pdfrwt beam="2">  1       -2 0.26847149E-01 0.37017282E+03</pdfrwt>
<totfact> 0.74930154E+02</totfact>
</mgrwt>
</event>
<event>
 6      1 +1.8175624e-03 3.00705900e+02 7.81860800e-03 1.08488800e-01
        1 -1    0    0  501    0 +0.0000000000e+00 +0.0000000000e+00 +3.1889818285e+02 3.1889818289e+02 5.0400000000e-03 0.0000e+00 1.0000e+00
       -1 -1    0    0    0  501 -0.0000000000e+00 -0.0000000000e+00 -7.0887865852e+01 7.0887866032e+01 5.0400000000e-03 0.0000e+00 -1.0000e+00
      -13  1    1    2    0    0 +9.0506328472e+01 -4.2807590056e+00 +8.3103851746e+00 9.0987878627e+01 1.0566000000e-01 0.0000e+00 -1.0000e+00
       13  1    1    2    0    0 -6.7934321035e+01 -8.9857644876e+00 +5.5114683181e+01 8.7940067114e+01 1.0566000000e-01 0.0000e+00 1.0000e+00
      -13  1    1    2    0    0 -1.2428737759e+01 -4.2083285829e+01 +6.1815761545e+01 7.5806833517e+01 1.0566000000e-01 0.0000e+00 1.0000e+00
       13  1    1    2    0    0 -1.0143269679e+01 +5.5349809322e+01 +1.2276948710e+02 1.3505126967e+02 1.0566000000e-01 0.0000e+00 -1.0000e+00
<mgrwt>
<rscale>  0 0.30070591E+03</rscale>
<asrwt>0</asrwt>
<pdfrwt beam="1">  1        1 0.79724544E-01 0.30070591E+03</pdfrwt>
<pdfrwt beam="2">  1       -1 0.17721967E-01 0.30070591E+03</pdfrwt>
<totfact> 0.10587969E+03</totfact>
</mgrwt>
</event>
<event>
 6      1 +1.8175624e-03 3.03146300e+02 7.81860800e-03 1.08367800e-01
        2 -1    0    0  501    0 +0.0000000000e+00 +0.0000000000e+00 +7.7195753288e+01 7.7195753330e+01 2.5500000000e-03 0.0000e+00 1.0000e+00
       -2 -1    0    0    0  501 -0.0000000000e+00 -0.0000000000e+00 -2.9761255852e+02 2.9761255853e+02 2.5500000000e-03 0.0000e+00 -1.0000e+00
      -13  1    1    2    0    0 +1.2341940494e+00 -4.9343948585e+01 -1.2288053983e+01 5.0866058739e+01 1.0566000000e-01 0.0000e+00 -1.0000e+00
       13  1    1    2    0    0 +8.1499441380e+00 +5.9815848170e+01 -5.9527137076e+01 8.4781180071e+01 1.0566000000e-01 0.0000e+00 1.0000e+00
      -13  1    1    2    0    0 +5.8713794035e+01 -4.3021791579e+01 -1.4657858867e+02 1.6365658552e+02 1.0566000000e-01 0.0000e+00 -1.0000e+00
       13  1    1    2    0    0 -6.8097932222e+01 +3.2549891994e+01 -2.0230254973e+00 7.5504487535e+01 1.0566000000e-01 0.0000e+00 1.0000e+00
<mgrwt>
<rscale>  0 0.30314634E+03</rscale>
<asrwt>0</asrwt>
<pdfrwt beam="1">  1        2 0.19298939E-01 0.30314634E+03</pdfrwt>
<pdfrwt beam="2">  1       -2 0.74403137E-01 0.30314634E+03</pdfrwt>
<totfact> 0.48502073E+02</totfact>
</mgrwt>
</event>
<event>
 6      1 +1.8175624e-03 2.15330800e+02 7.81860800e-03 1.13741300e-01
        2 -1    0    0  501    0 +0.0000000000e+00 +0.0000000000e+00 +2.4762264958e+02 2.4762264959e+02 2.5500000000e-03 0.0000e+00 1.0000e+00
       -2 -1    0    0    0  501 -0.0000000000e+00 -0.0000000000e+00 -4.6812499566e+01 4.6812499636e+01 2.5500000000e-03 0.0000e+00 -1.0000e+00
      -13  1    1    2    0    0 +2.1188364520e+01 -5.2061507665e+01 +7.7169223509e+01 9.5469616069e+01 1.0566000000e-01 0.0000e+00 -1.0000e+00
       13  1    1    2    0    0 +2.5459919746e+01 +2.1122842706e+01 -8.5491068216e+00 3.4168412152e+01 1.0566000000e-01 0.0000e+00 -1.0000e+00
      -13  1    1    2    0    0 -2.8299030611e+01 -1.8504960594e+01 +9.3392119285e+01 9.9324557933e+01 1.0566000000e-01 0.0000e+00 1.0000e+00
       13  1    1    2    0    0 -1.8349253655e+01 +4.9443625552e+01 +3.8797914039e+01 6.5472563072e+01 1.0566000000e-01 0.0000e+00 1.0000e+00
<mgrwt>
<rscale>  0 0.21533077E+03</rscale>
<asrwt>0</asrwt>
<pdfrwt beam="1">  1        2 0.61905662E-01 0.21533077E+03</pdfrwt>
<pdfrwt beam="2">  1       -2 0.11703125E-01 0.21533077E+03</pdfrwt>
<totfact> 0.40269391E+03</totfact>
</mgrwt>
</event>
<event>
 6      1 +1.8175624e-03 3.63330300e+02 7.81860800e-03 1.05727300e-01
        2 -1    0    0  501    0 +0.0000000000e+00 +0.0000000000e+00 +1.7250388739e+02 1.7250388741e+02 2.5500000000e-03 0.0000e+00 1.0000e+00
       -2 -1    0    0    0  501 -0.0000000000e+00 -0.0000000000e+00 -1.9131298241e+02 1.9131298242e+02 2.5500000000e-03 0.0000e+00 -1.0000e+00
      -13  1    1    2    0    0 +7.6684734755e+00 -3.3000968903e+01 -2.9755232996e+01 4.5091623264e+01 1.0566000000e-01 0.0000e+00 -1.0000e+00
       13  1    1    2    0    0 +2.6196962288e+01 +7.9813261565e+01 -1.2361725505e+02 1.4945793543e+02 1.0566000000e-01 0.0000e+00 -1.0000e+00
      -13  1    1    2    0    0 +1.5537931523e+01 -1.8559057273e+01 +1.1614616095e+00 2.4232748089e+01 1.0566000000e-01 0.0000e+00 1.0000e+00
       13  1    1    2    0    0 -4.9403367286e+01 -2.8253235390e+01 +1.3340193142e+02 1.4503456305e+02 1.0566000000e-01 0.0000e+00 1.0000e+00
<mgrwt>
<rscale>  0 0.36333034E+03</rscale>
<asrwt>0</asrwt>
<pdfrwt beam="1">  1        2 0.43125972E-01 0.36333034E+03</pdfrwt>
<pdfrwt beam="2">  1       -2 0.47828246E-01 0.36333034E+03</pdfrwt>
<totfact> 0.49598117E+02</totfact>
</mgrwt>
</event>
<event>
 6      1 +1.8175624e-03 1.87093200e+02 7.81860800e-03 1.16111000e-01
       -2 -1    0    0    0  501 -0.0000000000e+00 +0.0000000000e+00 +1.0485580673e+02 1.0485580676e+02 2.5500000000e-03 0.0000e+00 1.0000e+00
        2 -1    0    0  501    0 +0.0000000000e+00 -0.0000000000e+00 -8.3457125294e+01 8.3457125333e+01 2.5500000000e-03 0.0000e+00 -1.0000e+00
      -13  1    1    2    0    0 +5.3859225937e+01 -5.4980453771e+01 +1.9904881932e+01 7.9497685527e+01 1.0566000000e-01 0.0000e+00 1.0000e+00
       13  1    1    2    0    0 -5.2368975773e+01 +4.6509100567e+01 -1.1926954269e+01 7.1048360018e+01 1.0566000000e-01 0.0000e+00 -1.0000e+00
      -13  1    1    2    0    0 +1.0871623754e+01 +7.3824154029e+00 +1.9837770679e+01 2.3795809920e+01 1.0566000000e-01 0.0000e+00 1.0000e+00
       13  1    1    2    0    0 -1.2361873918e+01 +1.0889378004e+00 -6.4170169020e+00 1.3971076631e+01 1.0566000000e-01 0.0000e+00 -1.0000e+00
<mgrwt>
<rscale>  0 0.18709318E+03</rscale>
<asrwt>0</asrwt>
<pdfrwt beam="1">  1        2 0.20864281E-01 0.18709318E+03</pdfrwt>
<pdfrwt beam="2">  1       -2 0.26213951E-01 0.18709318E+03</pdfrwt>
<totfact> 0.33774595E+03</totfact>
</mgrwt>
</event>
<event>
 6      1 +1.8175624e-03 5.01551200e+02 7.81860800e-03 1.01337500e-01
       -1 -1    0    0    0  501 -0.0000000000e+00 +0.0000000000e+00 +5.1833888104e+02 5.1833888107e+02 5.0400000000e-03 0.0000e+00 1.0000e+00
        1 -1    0    0  501    0 +0.0000000000e+00 -0.0000000000e+00 -1.2132679896e+02 1.2132679907e+02 5.0400000000e-03 0.0000e+00 -1.0000e+00
      -13  1    1    2    0    0 +7.1408190432e+01 +2.1286732886e+01 +4.9428931211e+01 8.9417476270e+01 1.0566000000e-01 0.0000e+00 1.0000e+00
       13  1    1    2    0    0 -5.7733221632e+00 +4.8005760078e+01 +2.7258786828e+01 5.5506187698e+01 1.0566000000e-01 0.0000e+00 -1.0000e+00
      -13  1    1    2    0    0 +3.2577543499e+01 -7.4958740445e+01 +3.7389637333e+02 3.8272525167e+02 1.0566000000e-01 0.0000e+00 1.0000e+00
       13  1    1    2    0    0 -9.8212411768e+01 +5.6662474813e+00 -5.3572009290e+01 1.1201676450e+02 1.0566000000e-01 0.0000e+00 -1.0000e+00
<mgrwt>
<rscale>  0 0.50155118E+03</rscale>
<asrwt>0</asrwt>
<pdfrwt beam="1">  1        1 0.30331700E-01 0.50155118E+03</pdfrwt>
<pdfrwt beam="2">  1       -1 0.12958472E+00 0.50155118E+03</pdfrwt>
<totfact> 0.80316528E+01</totfact>
</mgrwt>
</event>
<event>
 6      1 +1.8175624e-03 2.32578000e+02 7.81860800e-03 1.12483800e-01
        2 -1    0    0  501    0 +0.0000000000e+00 +0.0000000000e+00 +5.7945389709e+02 5.7945389710e+02 2.5500000000e-03 0.0000e+00 -1.0000e+00
       -2 -1    0    0    0  501 -0.0000000000e+00 -0.0000000000e+00 -2.3337718905e+01 2.3337719044e+01 2.5500000000e-03 0.0000e+00 1.0000e+00
      -13  1    1    2    0    0 +3.8607578442e+01 -1.3038498353e+00 +8.8981445717e+01 9.7004917316e+01 1.0566000000e-01 0.0000e+00 -1.0000e+00
       13  1    1    2    0    0 -7.4776182906e+00 -4.2320318809e+01 +2.1846536461e+02 2.2265230935e+02 1.0566000000e-01 0.0000e+00 -1.0000e+00
      -13  1    1    2    0    0 +4.6651019744e+01 +2.6027499640e+01 +7.5530712340e+01 9.2512961531e+01 1.0566000000e-01 0.0000e+00 1.0000e+00
       13  1    1    2    0    0 -7.7780979895e+01 +1.7596669005e+01 +1.7313865552e+02 1.9062142795e+02 1.0566000000e-01 0.0000e+00 1.0000e+00
<mgrwt>
<rscale>  0 0.23257801E+03</rscale>
<asrwt>0</asrwt>
<pdfrwt beam="1">  1        2 0.14486348E+00 0.23257801E+03</pdfrwt>
<pdfrwt beam="2">  1       -2 0.58344296E-02 0.23257801E+03</pdfrwt>
<totfact> 0.43861055E+03</totfact>
</mgrwt>
</event>
<event>
 6      1 +1.8175624e-03 4.39072400e+02 7.81860800e-03 1.03103200e-01
       -2 -1    0    0    0  501 -0.0000000000e+00 +0.0000000000e+00 +6.5893139512e+01 6.5893139561e+01 2.5500000000e-03 0.0000e+00 1.0000e+00
        2 -1    0    0  501    0 +0.0000000000e+00 -0.0000000000e+00 -7.3142895180e+02 7.3142895181e+02 2.5500000000e-03 0.0000e+00 -1.0000e+00
      -13  1    1    2    0    0 -6.5282041246e+00 -5.5557062821e+01 -3.5718458562e+01 6.6370355766e+01 1.0566000000e-01 0.0000e+00 1.0000e+00
       13  1    1    2    0    0 +1.4892076101e+01 -2.0500683488e+00 +3.7411290322e+00 1.5491414439e+01 1.0566000000e-01 0.0000e+00 -1.0000e+00
      -13  1    1    2    0    0 -1.3513648379e+02 +1.5610089539e+01 -1.0943361910e+02 1.7458886649e+02 1.0566000000e-01 0.0000e+00 1.0000e+00
       13  1    1    2    0    0 +1.2677261182e+02 +4.1997041631e+01 -5.2412486366e+02 5.4087145468e+02 1.0566000000e-01 0.0000e+00 -1.0000e+00
<mgrwt>
<rscale>  0 0.43907243E+03</rscale>
<asrwt>0</asrwt>
<pdfrwt beam="1">  1        2 0.18285721E+00 0.43907243E+03</pdfrwt>
<pdfrwt beam="2">  1       -2 0.16473287E-01 0.43907243E+03</pdfrwt>
<totfact> 0.58829915E+02</totfact>
</mgrwt>
</event>
<event>
 6      1 +1.8175624e-03 2.44232200e+02 7.81860800e-03 1.11700500e-01
       -2 -1    0    0    0  501 -0.0000000000e+00 +0.0000000000e+00 +3.5491936954e+01 3.5491937046e+01 2.5500000000e-03 0.0000e+00 1.0000e+00
        2 -1    0    0  501    0 +0.0000000000e+00 -0.0000000000e+00 -4.2016137599e+02 4.2016137600e+02 2.5500000000e-03 0.0000e+00 -1.0000e+00
      -13  1    1    2    0    0 -7.4659626721e+00 +7.4649874363e+01 -8.9074531260e+01 1.1645869493e+02 1.0566000000e-01 0.0000e+00 1.0000e+00
       13  1    1    2    0    0 -1.5053159238e+01 -6.7629127146e+01 -7.2988760585e+01 1.0063630944e+02 1.0566000000e-01 0.0000e+00 -1.0000e+00
      -13  1    1    2    0    0 +4.9662691837e+01 -2.1614316424e+01 -1.5685839943e+02 1.6594616679e+02 1.0566000000e-01 0.0000e+00 1.0000e+00
       13  1    1    2    0    0 -2.7143569927e+01 +1.4593569207e+01 -6.5747747759e+01 7.2612141891e+01 1.0566000000e-01 0.0000e+00 -1.0000e+00
<mgrwt>
<rscale>  0 0.24423219E+03</rscale>
<asrwt>0</asrwt>
<pdfrwt beam="1">  1        2 0.10504033E+00 0.24423219E+03</pdfrwt>
<pdfrwt beam="2">  1       -2 0.88729856E-02 0.24423219E+03</pdfrwt>
<totfact> 0.34513554E+03</totfact>
</mgrwt>
</event>
<event>
 6      1 +1.8175624e-03 3.65141700e+02 7.81860800e-03 1.05656600e-01
        1 -1    0    0  501    0 +0.0000000000e+00 +0.0000000000e+00 +6.1824449558e+02 6.1824449560e+02 5.0400000000e-03 0.0000e+00 -1.0000e+00
       -1 -1    0    0    0  501 -0.0000000000e+00 -0.0000000000e+00 -5.3914122382e+01 5.3914122618e+01 5.0400000000e-03 0.0000e+00 1.0000e+00
      -13  1    1    2    0    0 +3.2572238918e+01 +2.7344313996e+01 +2.2668961167e+01 4.8192895955e+01 1.0566000000e-01 0.0000e+00 1.0000e+00
       13  1    1    2    0    0 +1.3332253944e+01 +3.1785192914e+01 +5.7697933864e+01 6.7209450378e+01 1.0566000000e-01 0.0000e+00 1.0000e+00
      -13  1    1    2    0    0 -1.0175980213e+02 -1.1624516222e+01 +4.7135599072e+02 4.8235533360e+02 1.0566000000e-01 0.0000e+00 -1.0000e+00
       13  1    1    2    0    0 +5.5855309268e+01 -4.7504990689e+01 +1.2607487452e+01 7.4400938285e+01 1.0566000000e-01 0.0000e+00 -1.0000e+00
<mgrwt>
<rscale>  0 0.36514167E+03</rscale>
<asrwt>0</asrwt>
<pdfrwt beam="1">  1        1 0.15456112E+00 0.36514167E+03</pdfrwt>
<pdfrwt beam="2">  1       -1 0.13478531E-01 0.36514167E+03</pdfrwt>
<totfact> 0.60295023E+02</totfact>
</mgrwt>
</event>
<event>
 6      1 +1.8175624e-03 2.30843400e+02 7.81860800e-03 1.12604800e-01
       -2 -1    0    0    0  501 -0.0000000000e+00 +0.0000000000e+00 +1.0637288708e+02 1.0637288711e+02 2.5500000000e-03 0.0000e+00 -1.0000e+00
        2 -1    0    0  501    0 +0.0000000000e+00 -0.0000000000e+00 -1.2524023653e+02 1.2524023656e+02 2.5500000000e-03 0.0000e+00 1.0000e+00
      -13  1    1    2    0    0 +6.6588527833e+00 -7.1777016370e+01 +2.7174871881e+01 7.7037427431e+01 1.0566000000e-01 0.0000e+00 -1.0000e+00
       13  1    1    2    0    0 -1.0829894283e+01 +8.1584523755e+01 -7.4065392561e+01 1.1072043473e+02 1.0566000000e-01 0.0000e+00 1.0000e+00
      -13  1    1    2    0    0 -1.2856961259e+01 -1.0634336854e+01 +1.3949847010e+01 2.1748562453e+01 1.0566000000e-01 0.0000e+00 -1.0000e+00
       13  1    1    2    0    0 +1.7028002759e+01 +8.2682946955e-01 +1.4073324216e+01 2.2106699063e+01 1.0566000000e-01 0.0000e+00 1.0000e+00
<mgrwt>
<rscale>  0 0.23084337E+03</rscale>
<asrwt>0</asrwt>
<pdfrwt beam="1">  1        2 0.31310059E-01 0.23084337E+03</pdfrwt>
<pdfrwt beam="2">  1       -2 0.26593222E-01 0.23084337E+03</pdfrwt>
<totfact> 0.21120788E+03</totfact>
</mgrwt>
</event>
<event>
 6      1 +1.8175624e-03 8.66290700e+02 7.81860800e-03 9.46872900e-02
       -2 -1    0    0    0  501 -0.0000000000e+00 +0.0000000000e+00 +2.9925379236e+02 2.9925379237e+02 2.5500000000e-03 0.0000e+00 1.0000e+00
        2 -1    0    0  501    0 +0.0000000000e+00 -0.0000000000e+00 -6.2694235332e+02 6.2694235332e+02 2.5500000000e-03 0.0000e+00 -1.0000e+00
      -13  1    1    2    0    0 +3.3558205268e+00 -5.9216367787e+01 +1.8063322732e+02 1.9012157616e+02 1.0566000000e-01 0.0000e+00 1.0000e+00
       13  1    1    2    0    0 +1.0307244962e+02 +1.5744095946e+01 +1.4356439451e+01 1.0525172182e+02 1.0566000000e-01 0.0000e+00 -1.0000e+00
      -13  1    1    2    0    0 +8.6050759832e+01 +7.6185756982e+01 -6.2240373690e+01 1.3070148475e+02 1.0566000000e-01 0.0000e+00 1.0000e+00
       13  1    1    2    0    0 -1.9247902998e+02 -3.2713485142e+01 -4.6043785405e+02 5.0012136296e+02 1.0566000000e-01 0.0000e+00 -1.0000e+00
<mgrwt>
<rscale>  0 0.86629066E+03</rscale>
<asrwt>0</asrwt>
<pdfrwt beam="1">  1        2 0.15673559E+00 0.86629066E+03</pdfrwt>
<pdfrwt beam="2">  1       -2 0.74813449E-01 0.86629066E+03</pdfrwt>
<totfact> 0.39573507E+01</totfact>
</mgrwt>
</event>
<event>
 6      1 +1.8175624e-03 2.66193300e+02 7.81860800e-03 1.10347800e-01
        4 -1    0    0  501    0 +0.0000000000e+00 +0.0000000000e+00 +4.4702981019e+01 4.4721017564e+01 1.2700000000e+00 0.0000e+00 -1.0000e+00
       -4 -1    0    0    0  501 -0.0000000000e+00 -0.0000000000e+00 -3.9617711503e+02 3.9617915061e+02 1.2700000000e+00 0.0000e+00 1.0000e+00
      -13  1    1    2    0    0 +1.0504999076e+01 -5.5810220729e+00 -2.1641171895e+00 1.2091210866e+01 1.0566000000e-01 0.0000e+00 1.0000e+00
       13  1    1    2    0    0 -4.8362495616e+01 -3.5670651623e+01 -9.6499655615e+01 1.1368166548e+02 1.0566000000e-01 0.0000e+00 -1.0000e+00
      -13  1    1    2    0    0 +2.0462367865e+01 +7.2905276109e+01 -2.6608248558e+02 2.7664740751e+02 1.0566000000e-01 0.0000e+00 1.0000e+00
       13  1    1    2    0    0 +1.7395128675e+01 -3.1653602413e+01 +1.3272124373e+01 3.8479884313e+01 1.0566000000e-01 0.0000e+00 -1.0000e+00
<mgrwt>
<rscale>  0 0.26619333E+03</rscale>
<asrwt>0</asrwt>
<pdfrwt beam="1">  1        4 0.11178255E-01 0.26619333E+03</pdfrwt>
<pdfrwt beam="2">  1       -4 0.99046777E-01 0.26619333E+03</pdfrwt>
<totfact> 0.10108864E+02</totfact>
</mgrwt>
</event>
<event>
 6      1 +1.8175624e-03 2.06100300e+02 7.81860800e-03 1.14469200e-01
        2 -1    0    0  501    0 +0.0000000000e+00 +0.0000000000e+00 +1.4534615729e+02 1.4534615732e+02 2.5500000000e-03 0.0000e+00 1.0000e+00
       -2 -1    0    0    0  501 -0.0000000000e+00 -0.0000000000e+00 -7.3062385123e+01 7.3062385168e+01 2.5500000000e-03 0.0000e+00 -1.0000e+00
      -13  1    1    2    0    0 -1.8386711052e+01 -2.1151910277e+01 -3.6319069003e+01 4.5875487888e+01 1.0566000000e-01 0.0000e+00 -1.0000e+00
       13  1    1    2    0    0 +5.4079273645e+00 +2.7635490244e+01 +3.6618859388e+01 4.6194350589e+01 1.0566000000e-01 0.0000e+00 1.0000e+00
      -13  1    1    2    0    0 -1.8295984190e+01 +4.1256980265e+01 +4.2962783576e+01 6.2311262182e+01 1.0566000000e-01 0.0000e+00 -1.0000e+00
       13  1    1    2    0    0 +3.1274767878e+01 -4.7740560231e+01 +2.9021198208e+01 6.4027441824e+01 1.0566000000e-01 0.0000e+00 1.0000e+00
<mgrwt>
<rscale>  0 0.20610033E+03</rscale>
<asrwt>0</asrwt>
<pdfrwt beam="1">  1        2 0.36336539E-01 0.20610033E+03</pdfrwt>
<pdfrwt beam="2">  1       -2 0.18265596E-01 0.20610033E+03</pdfrwt>
<totfact> 0.34293332E+03</totfact>
</mgrwt>
</event>
<event>
 7      1 +1.8175624e-03 9.15423400e+01 7.81860800e-03 1.29915900e-01
       -3 -1    0    0    0  501 -0.0000000000e+00 +0.0000000000e+00 +1.1634392214e+01 1.1634830605e+01 1.0100000000e-01 0.0000e+00 1.0000e+00
        3 -1    0    0  501    0 +0.0000000000e+00 -0.0000000000e+00 -1.8006572984e+02 1.8006575817e+02 1.0100000000e-01 0.0000e+00 -1.0000e+00
       23  2    1    2    0    0 +0.0000000000e+00 +0.0000000000e+00 -1.6843133763e+02 1.9170058877e+02 9.1542341244e+01 0.0000e+00 0.0000e+00
      -13  1    3    3    0    0 -1.3005634102e+01 +2.6756530757e+00 -1.9330167285e+01 2.3451485435e+01 1.0566000000e-01 0.0000e+00 -1.0000e+00
       13  1    3    3    0    0 -7.5815705353e+00 -8.8979985122e+00 -6.0056421649e+01 6.1183654146e+01 1.0566000000e-01 0.0000e+00 1.0000e+00
      -13  1    3    3    0    0 +1.6174548003e+01 +3.0558281631e+01 -4.8258101873e+01 5.9365647809e+01 1.0566000000e-01 0.0000e+00 -1.0000e+00
       13  1    3    3    0    0 +4.4126566341e+00 -2.4335936195e+01 -4.0786646819e+01 4.7699801381e+01 1.0566000000e-01 0.0000e+00 1.0000e+00
<mgrwt>
<rscale>  0 0.91542341E+02</rscale>
<asrwt>0</asrwt>
<pdfrwt beam="1">  1        3 0.45016482E-01 0.91542341E+02</pdfrwt>
<pdfrwt beam="2">  1       -3 0.29086570E-02 0.91542341E+02</pdfrwt>
<totfact> 0.55146218E+03</totfact>
</mgrwt>
</event>
<event>
 6      1 +1.8175624e-03 2.83423600e+02 7.81860800e-03 1.09383400e-01
        2 -1    0    0  501    0 +0.0000000000e+00 +0.0000000000e+00 +1.0089268279e+02 1.0089268283e+02 2.5500000000e-03 0.0000e+00 -1.0000e+00
       -2 -1    0    0    0  501 -0.0000000000e+00 -0.0000000000e+00 -1.9904549126e+02 1.9904549128e+02 2.5500000000e-03 0.0000e+00 1.0000e+00
      -13  1    1    2    0    0 -9.7069983404e+01 +6.2187715801e+00 -8.3463714814e-01 9.7272619895e+01 1.0566000000e-01 0.0000e+00 -1.0000e+00
       13  1    1    2    0    0 +5.3808581343e+01 +4.1901031591e+01 -1.1197425313e+01 6.9111890238e+01 1.0566000000e-01 0.0000e+00 -1.0000e+00
      -13  1    1    2    0    0 +4.7911252942e+01 -6.0116961451e+01 -4.2008016799e+01 8.7602636102e+01 1.0566000000e-01 0.0000e+00 1.0000e+00
       13  1    1    2    0    0 -4.6498508812e+00 +1.1997158280e+01 -4.4112729206e+01 4.5951027868e+01 1.0566000000e-01 0.0000e+00 1.0000e+00
<mgrwt>
<rscale>  0 0.28342360E+03</rscale>
<asrwt>0</asrwt>
<pdfrwt beam="1">  1        2 0.25223171E-01 0.28342360E+03</pdfrwt>
<pdfrwt beam="2">  1       -2 0.49761372E-01 0.28342360E+03</pdfrwt>
<totfact> 0.82741367E+02</totfact>
</mgrwt>
</event>
<event>
 6      1 +1.8175624e-03 4.04515300e+02 7.81860800e-03 1.04222700e-01
       -2 -1    0    0    0  501 -0.0000000000e+00 +0.0000000000e+00 +4.2692642352e+02 4.2692642353e+02 2.5500000000e-03 0.0000e+00 1.0000e+00
        2 -1    0    0  501    0 +0.0000000000e+00 -0.0000000000e+00 -9.5820174953e+01 9.5820174987e+01 2.5500000000e-03 0.0000e+00 -1.0000e+00
      -13  1    1    2    0    0 +4.2281238523e+00 +1.0831084404e+01 -1.0195128920e-01 1.1628025575e+01 1.0566000000e-01 0.0000e+00 -1.0000e+00
       13  1    1    2    0    0 +4.8165371790e+01 +9.9931424461e+01 +1.1983953408e+02 1.6330253436e+02 1.0566000000e-01 0.0000e+00 -1.0000e+00
      -13  1    1    2    0    0 -5.5285372748e+00 -2.5447204144e+01 -5.6823057142e+01 6.2505966997e+01 1.0566000000e-01 0.0000e+00 1.0000e+00
       13  1    1    2    0    0 -4.6864958367e+01 -8.5315304721e+01 +2.6819172292e+02 2.8531007159e+02 1.0566000000e-01 0.0000e+00 1.0000e+00
<mgrwt>
<rscale>  0 0.40451534E+03</rscale>
<asrwt>0</asrwt>
<pdfrwt beam="1">  1        2 0.23955044E-01 0.40451534E+03</pdfrwt>
<pdfrwt beam="2">  1       -2 0.10673160E+00 0.40451534E+03</pdfrwt>
<totfact> 0.16599200E+02</totfact>
</mgrwt>
</event>
<event>
 6      1 +1.8175624e-03 7.55208700e+02 7.81860800e-03 9.62721400e-02
        2 -1    0    0  501    0 +0.0000000000e+00 +0.0000000000e+00 +8.4464187894e+02 8.4464187895e+02 2.5500000000e-03 0.0000e+00 -1.0000e+00
       -2 -1    0    0    0  501 -0.0000000000e+00 -0.0000000000e+00 -1.6881122285e+02 1.6881122287e+02 2.5500000000e-03 0.0000e+00 1.0000e+00
      -13  1    1    2    0    0 -2.6418260418e+02 +1.4499667318e+02 +1.6859452262e+02 3.4531233370e+02 1.0566000000e-01 0.0000e+00 1.0000e+00
       13  1    1    2    0    0 +4.7193882698e+01 +6.0330672981e+01 +3.0856355532e+01 8.2578317416e+01 1.0566000000e-01 0.0000e+00 1.0000e+00
      -13  1    1    2    0    0 +4.1215247933e+01 +1.7872920886e+01 +1.3017869329e+02 1.3771216836e+02 1.0566000000e-01 0.0000e+00 -1.0000e+00
       13  1    1    2    0    0 +1.7577347355e+02 -2.2320026705e+02 +3.4620108465e+02 4.4785028234e+02 1.0566000000e-01 0.0000e+00 -1.0000e+00
<mgrwt>
<rscale>  0 0.75520866E+03</rscale>
<asrwt>0</asrwt>
<pdfrwt beam="1">  1        2 0.21116047E+00 0.75520866E+03</pdfrwt>
<pdfrwt beam="2">  1       -2 0.42202806E-01 0.75520866E+03</pdfrwt>
<totfact> 0.81244584E+01</totfact>
</mgrwt>
</event>
<event>
 6      1 +1.8175624e-03 3.85321300e+02 7.81860800e-03 1.04898400e-01
        2 -1    0    0  501    0 +0.0000000000e+00 +0.0000000000e+00 +8.1058168401e+02 8.1058168401e+02 2.5500000000e-03 0.0000e+00 -1.0000e+00
       -2 -1    0    0    0  501 -0.0000000000e+00 -0.0000000000e+00 -4.5791959750e+01 4.5791959821e+01 2.5500000000e-03 0.0000e+00 1.0000e+00
      -13  1    1    2    0    0 +2.1825047058e+01 +9.0079465029e+01 +1.0655708860e+02 1.4122700519e+02 1.0566000000e-01 0.0000e+00 1.0000e+00
       13  1    1    2    0    0 +3.5973393519e+01 -1.4077655617e+02 +4.4858958481e+02 4.7153446383e+02 1.0566000000e-01 0.0000e+00 -1.0000e+00
      -13  1    1    2    0    0 -8.4681615194e+01 +4.0068347871e+01 +1.7494735389e+02 1.9845159674e+02 1.0566000000e-01 0.0000e+00 1.0000e+00
       13  1    1    2    0    0 +2.6883174617e+01 +1.0628743273e+01 +3.4695696956e+01 4.5160578078e+01 1.0566000000e-01 0.0000e+00 -1.0000e+00
<mgrwt>
<rscale>  0 0.38532129E+03</rscale>
<asrwt>0</asrwt>
<pdfrwt beam="1">  1        2 0.20264542E+00 0.38532129E+03</pdfrwt>
<pdfrwt beam="2">  1       -2 0.11447990E-01 0.38532129E+03</pdfrwt>
<totfact> 0.91130750E+02</totfact>
</mgrwt>
</event>
<event>
 6      1 +1.8175624e-03 9.63742700e+02 7.81860800e-03 9.34923000e-02
        2 -1    0    0  501    0 +0.0000000000e+00 +0.0000000000e+00 +3.4002626891e+02 3.4002626892e+02 2.5500000000e-03 0.0000e+00 -1.0000e+00
       -2 -1    0    0    0  501 -0.0000000000e+00 -0.0000000000e+00 -6.8288835959e+02 6.8288835959e+02 2.5500000000e-03 0.0000e+00 1.0000e+00
      -13  1    1    2    0    0 +4.2957094026e+01 +3.2642863649e+01 -1.8151538553e+01 5.6924142419e+01 1.0566000000e-01 0.0000e+00 -1.0000e+00
       13  1    1    2    0    0 -1.9550369916e+02 +1.1073644164e+02 +2.1413378352e+02 3.1038289950e+02 1.0566000000e-01 0.0000e+00 -1.0000e+00
      -13  1    1    2    0    0 +1.2054371086e+01 -2.0979883669e+02 -2.4170344991e+02 3.2028335674e+02 1.0566000000e-01 0.0000e+00 1.0000e+00
       13  1    1    2    0    0 +1.4049223405e+02 +6.6419531409e+01 -2.9714088574e+02 3.3532422985e+02 1.0566000000e-01 0.0000e+00 1.0000e+00
<mgrwt>
<rscale>  0 0.96374266E+03</rscale>
<asrwt>0</asrwt>
<pdfrwt beam="1">  1        2 0.85006568E-01 0.96374266E+03</pdfrwt>
<pdfrwt beam="2">  1       -2 0.17072209E+00 0.96374266E+03</pdfrwt>
<totfact> 0.11493049E+01</totfact>
</mgrwt>
</event>
<event>
 6      1 +1.8175624e-03 1.51142300e+02 7.81860800e-03 1.19907600e-01
       -3 -1    0    0    0  501 -0.0000000000e+00 +0.0000000000e+00 +1.0216788202e+02 1.0216793194e+02 1.0100000000e-01 0.0000e+00 1.0000e+00
        3 -1    0    0  501    0 +0.0000000000e+00 -0.0000000000e+00 -5.5898097752e+01 5.5898188998e+01 1.0100000000e-01 0.0000e+00 -1.0000e+00
      -13  1    1    2    0    0 +3.2743525372e+01 +8.6699418216e+00 -1.8933104368e+01 3.8804380552e+01 1.0566000000e-01 0.0000e+00 -1.0000e+00
       13  1    1    2    0    0 +1.8177486799e+01 -1.9000022390e+01 +1.5300775267e+01 3.0422800084e+01 1.0566000000e-01 0.0000e+00 1.0000e+00
      -13  1    1    2    0    0 -5.0488270991e+01 -1.1092560099e+01 +3.9279834424e+01 6.4923238933e+01 1.0566000000e-01 0.0000e+00 1.0000e+00
       13  1    1    2    0    0 -4.3274117993e-01 +2.1422640667e+01 +1.0622278945e+01 2.3915701372e+01 1.0566000000e-01 0.0000e+00 -1.0000e+00
<mgrwt>
<rscale>  0 0.15114234E+03</rscale>
<asrwt>0</asrwt>
<pdfrwt beam="1">  1        3 0.13974542E-01 0.15114234E+03</pdfrwt>
<pdfrwt beam="2">  1       -3 0.25541988E-01 0.15114234E+03</pdfrwt>
<totfact> 0.14171190E+03</totfact>
</mgrwt>
</event>
<event>
 6      1 +1.8175624e-03 4.65745600e+02 7.81860800e-03 1.02312800e-01
       -1 -1    0    0    0  501 -0.0000000000e+00 +0.0000000000e+00 +7.4247498856e+02 7.4247498858e+02 5.0400000000e-03 0.0000e+00 1.0000e+00
        1 -1    0    0  501    0 +0.0000000000e+00 -0.0000000000e+00 -7.3039135247e+01 7.3039135421e+01 5.0400000000e-03 0.0000e+00 -1.0000e+00
      -13  1    1    2    0    0 +5.0172513827e+01 -6.2652764263e+01 +1.3191720503e+02 1.5441764847e+02 1.0566000000e-01 0.0000e+00 -1.0000e+00
       13  1    1    2    0    0 +7.5631081588e+01 -1.8084811189e+01 -2.2100217854e+01 8.0842759052e+01 1.0566000000e-01 0.0000e+00 -1.0000e+00
      -13  1    1    2    0    0 -9.9736043621e+01 +7.6353601496e+01 +4.8821030057e+02 5.0410957103e+02 1.0566000000e-01 0.0000e+00 1.0000e+00
       13  1    1    2    0    0 -2.6067551795e+01 +4.3839739568e+00 +7.1408565578e+01 7.6144145449e+01 1.0566000000e-01 0.0000e+00 1.0000e+00
<mgrwt>
<rscale>  0 0.46574556E+03</rscale>
<asrwt>0</asrwt>
<pdfrwt beam="1">  1        1 0.18259784E-01 0.46574556E+03</pdfrwt>
<pdfrwt beam="2">  1       -1 0.18561875E+00 0.46574556E+03</pdfrwt>
<totfact> 0.58808565E+01</totfact>
</mgrwt>
</event>
<event>
 6      1 +1.8175624e-03 2.56420800e+02 7.81860800e-03 1.10931300e-01
        1 -1    0    0  501    0 +0.0000000000e+00 +0.0000000000e+00 +6.3076750006e+02 6.3076750008e+02 5.0400000000e-03 0.0000e+00 -1.0000e+00
       -1 -1    0    0    0  501 -0.0000000000e+00 -0.0000000000e+00 -2.6060164476e+01 2.6060164963e+01 5.0400000000e-03 0.0000e+00 1.0000e+00
      -13  1    1    2    0    0 +2.9060453838e+01 +3.0590573427e+01 +8.7197090809e+01 9.6869174506e+01 1.0566000000e-01 0.0000e+00 1.0000e+00
       13  1    1    2    0    0 +2.3903077460e+01 -9.4057639343e+01 +1.5191103423e+02 1.8026416758e+02 1.0566000000e-01 0.0000e+00 -1.0000e+00
      -13  1    1    2    0    0 -3.2171651758e+01 -1.3575193321e+00 +1.5697552661e+02 1.6024414234e+02 1.0566000000e-01 0.0000e+00 1.0000e+00
       13  1    1    2    0    0 -2.0791879539e+01 +6.4824585247e+01 +2.0862368394e+02 2.1945018061e+02 1.0566000000e-01 0.0000e+00 -1.0000e+00
<mgrwt>
<rscale>  0 0.25642079E+03</rscale>
<asrwt>0</asrwt>
<pdfrwt beam="1">  1        1 0.15769188E+00 0.25642079E+03</pdfrwt>
<pdfrwt beam="2">  1       -1 0.65150409E-02 0.25642079E+03</pdfrwt>
<totfact> 0.18048664E+03</totfact>
</mgrwt>
</event>
<event>
 6      1 +1.8175624e-03 2.54596700e+02 7.81860800e-03 1.11043400e-01
        2 -1    0    0  501    0 +0.0000000000e+00 +0.0000000000e+00 +6.5018712089e+01 6.5018712139e+01 2.5500000000e-03 0.0000e+00 1.0000e+00
       -2 -1    0    0    0  501 -0.0000000000e+00 -0.0000000000e+00 -2.4923396031e+02 2.4923396032e+02 2.5500000000e-03 0.0000e+00 -1.0000e+00
      -13  1    1    2    0    0 -2.5066350744e+01 +3.0488791521e+01 -2.2997487774e+01 4.5681330497e+01 1.0566000000e-01 0.0000e+00 -1.0000e+00
       13  1    1    2    0    0 +7.6485209477e+01 -4.8617652388e+01 -4.9307212836e+01 1.0317400736e+02 1.0566000000e-01 0.0000e+00 1.0000e+00
      -13  1    1    2    0    0 -2.4430886969e+01 +5.0465585486e+01 -1.2517999633e+01 5.7448716568e+01 1.0566000000e-01 0.0000e+00 1.0000e+00
       13  1    1    2    0    0 -2.6987971764e+01 -3.2336724619e+01 -9.9392547978e+01 1.0794861804e+02 1.0566000000e-01 0.0000e+00 -1.0000e+00
<mgrwt>
<rscale>  0 0.25459671E+03</rscale>
<asrwt>0</asrwt>
<pdfrwt beam="1">  1        2 0.16254679E-01 0.25459671E+03</pdfrwt>
<pdfrwt beam="2">  1       -2 0.62308488E-01 0.25459671E+03</pdfrwt>
<totfact> 0.86429060E+02</totfact>
</mgrwt>
</event>
<event>
 6      1 +1.8175624e-03 1.26648100e+02 7.81860800e-03 1.23251600e-01
        2 -1    0    0  501    0 +0.0000000000e+00 +0.0000000000e+00 +3.4975930819e+02 3.4975930820e+02 2.5500000000e-03 0.0000e+00 1.0000e+00
       -2 -1    0    0    0  501 -0.0000000000e+00 -0.0000000000e+00 -1.1464846280e+01 1.1464846563e+01 2.5500000000e-03 0.0000e+00 -1.0000e+00
      -13  1    1    2    0    0 -1.9212476607e+01 -3.3904980623e+01 +1.3174592936e+02 1.3738874785e+02 1.0566000000e-01 0.0000e+00 -1.0000e+00
       13  1    1    2    0    0 +1.1756873026e+00 +3.0705206590e+01 +1.1693879109e+02 1.2090857694e+02 1.0566000000e-01 0.0000e+00 1.0000e+00
      -13  1    1    2    0    0 +8.0479738792e+00 -1.5769950914e+01 +7.4807399658e+01 7.6874049217e+01 1.0566000000e-01 0.0000e+00 1.0000e+00
       13  1    1    2    0    0 +9.9888154256e+00 +1.8969724947e+01 +1.4802341799e+01 2.6052780752e+01 1.0566000000e-01 0.0000e+00 -1.0000e+00
<mgrwt>
<rscale>  0 0.12664812E+03</rscale>
<asrwt>0</asrwt>
<pdfrwt beam="1">  1        2 0.87439820E-01 0.12664812E+03</pdfrwt>
<pdfrwt beam="2">  1       -2 0.28662118E-02 0.12664812E+03</pdfrwt>
<totfact> 0.22780599E+04</totfact>
</mgrwt>
</event>
<event>
 6      1 +1.8175624e-03 6.24506100e+02 7.81860800e-03 9.85582900e-02
        1 -1    0    0  501    0 +0.0000000000e+00 +0.0000000000e+00 +3.1919886432e+02 3.1919886436e+02 5.0400000000e-03 0.0000e+00 -1.0000e+00
       -1 -1    0    0    0  501 -0.0000000000e+00 -0.0000000000e+00 -3.0545834829e+02 3.0545834834e+02 5.0400000000e-03 0.0000e+00 1.0000e+00
      -13  1    1    2    0    0 +1.4594212596e+01 +1.2400269927e+01 +2.5851298037e+01 3.2172325216e+01 1.0566000000e-01 0.0000e+00 1.0000e+00
       13  1    1    2    0    0 +1.0539203551e+02 -1.0126661487e+02 -2.3264482843e+00 1.4617739894e+02 1.0566000000e-01 0.0000e+00 -1.0000e+00
      -13  1    1    2    0    0 -5.4211926002e+01 +1.5358494570e+02 -1.8609911320e+02 2.4730580172e+02 1.0566000000e-01 0.0000e+00 1.0000e+00
       13  1    1    2    0    0 -6.5774322100e+01 -6.4718600755e+01 +1.7631477947e+02 1.9900168682e+02 1.0566000000e-01 0.0000e+00 -1.0000e+00
<mgrwt>
<rscale>  0 0.62450607E+03</rscale>
<asrwt>0</asrwt>
<pdfrwt beam="1">  1        1 0.79799716E-01 0.62450607E+03</pdfrwt>
<pdfrwt beam="2">  1       -1 0.76364587E-01 0.62450607E+03</pdfrwt>
<totfact> 0.74679054E+01</totfact>
</mgrwt>
</event>
<event>
 7      1 +1.8175624e-03 9.09239600e+01 7.81860800e-03 1.30062900e-01
        1 -1    0    0  501    0 +0.0000000000e+00 +0.0000000000e+00 +1.4145340487e+02 1.4145340496e+02 5.0400000000e-03 0.0000e+00 -1.0000e+00
       -1 -1    0    0    0  501 -0.0000000000e+00 -0.0000000000e+00 -1.4611112775e+01 1.4611113644e+01 5.0400000000e-03 0.0000e+00 1.0000e+00
       23  2    1    2    0    0 +0.0000000000e+00 -3.5527136788e-15 +1.2684229210e+02 1.5606451861e+02 9.0923962205e+01 0.0000e+00 0.0000e+00
      -13  1    3    3    0    0 +4.3655268686e+00 +1.0270368088e+01 +5.1690153323e+01 5.2881200819e+01 1.0566000000e-01 0.0000e+00 -1.0000e+00
       13  1    3    3    0    0 +4.5190312418e+00 -1.8471694502e+01 +6.7944733261e+01 7.0555815374e+01 1.0566000000e-01 0.0000e+00 -1.0000e+00
      -13  1    3    3    0    0 -6.1329300687e+00 -8.8357227351e+00 +1.0530024199e+01 1.5052421770e+01 1.0566000000e-01 0.0000e+00 1.0000e+00
       13  1    3    3    0    0 -2.7516280417e+00 +1.7037049150e+01 -3.3226186859e+00 1.7575080642e+01 1.0566000000e-01 0.0000e+00 1.0000e+00
<mgrwt>
<rscale>  0 0.90923962E+02</rscale>
<asrwt>0</asrwt>
<pdfrwt beam="1">  1        1 0.35363351E-01 0.90923962E+02</pdfrwt>
<pdfrwt beam="2">  1       -1 0.36527783E-02 0.90923962E+02</pdfrwt>
<totfact> 0.30537371E+04</totfact>
</mgrwt>
</event>
<event>
 6      1 +1.8175624e-03 2.71095400e+02 7.81860800e-03 1.10065400e-01
        2 -1    0    0  501    0 +0.0000000000e+00 +0.0000000000e+00 +4.4975473305e+01 4.4975473377e+01 2.5500000000e-03 0.0000e+00 1.0000e+00
       -2 -1    0    0    0  501 -0.0000000000e+00 -0.0000000000e+00 -4.0851551516e+02 4.0851551517e+02 2.5500000000e-03 0.0000e+00 -1.0000e+00
      -13  1    1    2    0    0 +1.0960126442e+02 -2.0673585044e+01 -1.0940210094e+02 1.5623272748e+02 1.0566000000e-01 0.0000e+00 1.0000e+00
       13  1    1    2    0    0 -5.6616138262e+01 +1.4169034586e+01 -3.7652649746e+01 6.9454170859e+01 1.0566000000e-01 0.0000e+00 1.0000e+00
      -13  1    1    2    0    0 -4.5821033157e+01 -1.4685009862e+01 -1.5896674080e+02 1.6608929056e+02 1.0566000000e-01 0.0000e+00 -1.0000e+00
       13  1    1    2    0    0 -7.1640930008e+00 +2.1189560319e+01 -5.7518550366e+01 6.1714799645e+01 1.0566000000e-01 0.0000e+00 -1.0000e+00
<mgrwt>
<rscale>  0 0.27109540E+03</rscale>
<asrwt>0</asrwt>
<pdfrwt beam="1">  1        2 0.11243870E-01 0.27109540E+03</pdfrwt>
<pdfrwt beam="2">  1       -2 0.10212887E+00 0.27109540E+03</pdfrwt>
<totfact> 0.45226936E+02</totfact>
</mgrwt>
</event>
<event>
 6      1 +1.8175624e-03 1.85653800e+02 7.81860800e-03 1.16244100e-01
       -3 -1    0    0    0  501 -0.0000000000e+00 +0.0000000000e+00 +2.2053742603e+02 2.2053744915e+02 1.0100000000e-01 0.0000e+00 1.0000e+00
        3 -1    0    0  501    0 +0.0000000000e+00 -0.0000000000e+00 -3.9071907450e+01 3.9072037991e+01 1.0100000000e-01 0.0000e+00 -1.0000e+00
      -13  1    1    2    0    0 -2.8425198062e+01 +8.0950729823e+01 +1.0395198662e+02 1.3478515953e+02 1.0566000000e-01 0.0000e+00 1.0000e+00
       13  1    1    2    0    0 +1.1262142884e+01 -4.3906910640e+00 +4.7695039590e-01 1.2097631010e+01 1.0566000000e-01 0.0000e+00 -1.0000e+00
      -13  1    1    2    0    0 -1.8214283903e+00 -2.0035172655e+01 +3.2812385112e+01 3.8488823383e+01 1.0566000000e-01 0.0000e+00 1.0000e+00
       13  1    1    2    0    0 +1.8984483569e+01 -5.6524866104e+01 +4.4224196451e+01 7.4237873220e+01 1.0566000000e-01 0.0000e+00 -1.0000e+00
<mgrwt>
<rscale>  0 0.18565385E+03</rscale>
<asrwt>0</asrwt>
<pdfrwt beam="1">  1        3 0.97679962E-02 0.18565385E+03</pdfrwt>
<pdfrwt beam="2">  1       -3 0.55134375E-01 0.18565385E+03</pdfrwt>
<totfact> 0.60801276E+02</totfact>
</mgrwt>
</event>
<event>
 6      1 +1.8175624e-03 3.22696800e+02 7.81860800e-03 1.07441500e-01
       -2 -1    0    0    0  501 -0.0000000000e+00 +0.0000000000e+00 +5.6620980924e+02 5.6620980925e+02 2.5500000000e-03 0.0000e+00 -1.0000e+00
        2 -1    0    0  501    0 +0.0000000000e+00 -0.0000000000e+00 -4.5978195842e+01 4.5978195913e+01 2.5500000000e-03 0.0000e+00 1.0000e+00
      -13  1    1    2    0    0 +6.1487134109e+00 -8.1331886695e+00 -2.6877728125e+01 2.8746806218e+01 1.0566000000e-01 0.0000e+00 1.0000e+00
       13  1    1    2    0    0 -2.1705122058e+00 +3.6671401554e+01 +8.9903466454e+01 9.7119242479e+01 1.0566000000e-01 0.0000e+00 -1.0000e+00
      -13  1    1    2    0    0 -4.7152465291e+01 -8.3433927298e+01 +2.5744156651e+02 2.7470119501e+02 1.0566000000e-01 0.0000e+00 -1.0000e+00
       13  1    1    2    0    0 +4.3174264086e+01 +5.4895714413e+01 +1.9976430857e+02 2.1162076146e+02 1.0566000000e-01 0.0000e+00 1.0000e+00
<mgrwt>
<rscale>  0 0.32269680E+03</rscale>
<asrwt>0</asrwt>
<pdfrwt beam="1">  1        2 0.11494549E-01 0.32269680E+03</pdfrwt>
<pdfrwt beam="2">  1       -2 0.14155245E+00 0.32269680E+03</pdfrwt>
<totfact> 0.19843079E+02</totfact>
</mgrwt>
</event>
<event>
 6      1 +1.8175624e-03 2.86636800e+02 7.81860800e-03 1.09211800e-01
        1 -1    0    0  501    0 +0.0000000000e+00 +0.0000000000e+00 +1.3434116799e+02 1.3434116808e+02 5.0400000000e-03 0.0000e+00 -1.0000e+00
       -1 -1    0    0    0  501 -0.0000000000e+00 -0.0000000000e+00 -1.5289555734e+02 1.5289555742e+02 5.0400000000e-03 0.0000e+00 1.0000e+00
      -13  1    1    2    0    0 -5.0066144980e+01 +8.9949217793e+00 -8.3198116837e+01 9.7516487325e+01 1.0566000000e-01 0.0000e+00 1.0000e+00
       13  1    1    2    0    0 -3.8094799638e+00 +4.7941519995e+01 +4.5219307100e+00 4.8304870338e+01 1.0566000000e-01 0.0000e+00 -1.0000e+00
      -13  1    1    2    0    0 -5.8132525007e+00 -5.1866354948e+01 -5.5983084397e+00 5.2490617273e+01 1.0566000000e-01 0.0000e+00 1.0000e+00
       13  1    1    2    0    0 +5.9688877444e+01 -5.0700868256e+00 +6.5720105216e+01 8.8924750574e+01 1.0566000000e-01 0.0000e+00 -1.0000e+00
<mgrwt>
<rscale>  0 0.28663683E+03</rscale>
<asrwt>0</asrwt>
<pdfrwt beam="1">  1        1 0.33585292E-01 0.28663683E+03</pdfrwt>
<pdfrwt beam="2">  1       -1 0.38223889E-01 0.28663683E+03</pdfrwt>
<totfact> 0.87997954E+02</totfact>
</mgrwt>
</event>
<event>
 6      1 +1.8175624e-03 4.28484100e+02 7.81860800e-03 1.03434000e-01
       -2 -1    0    0    0  501 -0.0000000000e+00 +0.0000000000e+00 +3.6769756668e+02 3.6769756669e+02 2.5500000000e-03 0.0000e+00 1.0000e+00
        2 -1    0    0  501    0 +0.0000000000e+00 -0.0000000000e+00 -1.2482991511e+02 1.2482991514e+02 2.5500000000e-03 0.0000e+00 -1.0000e+00
      -13  1    1    2    0    0 +3.8903508428e+01 +1.8203395991e+01 -3.6311453582e+01 5.6243927840e+01 1.0566000000e-01 0.0000e+00 -1.0000e+00
       13  1    1    2    0    0 -1.0153157611e+00 +1.3390962954e+02 +2.4737542909e+01 1.3617920892e+02 1.0566000000e-01 0.0000e+00 -1.0000e+00
      -13  1    1    2    0    0 -2.3790783188e+01 -1.2666726368e+02 +2.2049103833e+02 2.5539558767e+02 1.0566000000e-01 0.0000e+00 1.0000e+00
       13  1    1    2    0    0 -1.4097409479e+01 -2.5445761849e+01 +3.3950523911e+01 4.4708757397e+01 1.0566000000e-01 0.0000e+00 1.0000e+00
<mgrwt>
<rscale>  0 0.42848410E+03</rscale>
<asrwt>0</asrwt>
<pdfrwt beam="1">  1        2 0.31207479E-01 0.42848410E+03</pdfrwt>
<pdfrwt beam="2">  1       -2 0.91924391E-01 0.42848410E+03</pdfrwt>
<totfact> 0.17465777E+02</totfact>
</mgrwt>
</event>
<event>
 6      1 +1.8175624e-03 2.62987000e+02 7.81860800e-03 1.10536200e-01
        1 -1    0    0  501    0 +0.0000000000e+00 +0.0000000000e+00 +5.8524217249e+02 5.8524217251e+02 5.0400000000e-03 0.0000e+00 -1.0000e+00
       -1 -1    0    0    0  501 -0.0000000000e+00 -0.0000000000e+00 -2.9544250427e+01 2.9544250857e+01 5.0400000000e-03 0.0000e+00 1.0000e+00
      -13  1    1    2    0    0 +3.8811720317e+01 -2.5737033037e+01 +1.3697417516e+02 1.4467439417e+02 1.0566000000e-01 0.0000e+00 1.0000e+00
       13  1    1    2    0    0 -7.7102493880e+01 -5.9518593939e+00 +2.7682512378e+02 2.8742369338e+02 1.0566000000e-01 0.0000e+00 -1.0000e+00
      -13  1    1    2    0    0 +4.1162699613e+01 +6.4842864610e+01 +7.2016185276e+01 1.0528678472e+02 1.0566000000e-01 0.0000e+00 1.0000e+00
       13  1    1    2    0    0 -2.8719260502e+00 -3.3153972178e+01 +6.9882437845e+01 7.7401551106e+01 1.0566000000e-01 0.0000e+00 -1.0000e+00
<mgrwt>
<rscale>  0 0.26298701E+03</rscale>
<asrwt>0</asrwt>
<pdfrwt beam="1">  1        1 0.14631054E+00 0.26298701E+03</pdfrwt>
<pdfrwt beam="2">  1       -1 0.73860630E-02 0.26298701E+03</pdfrwt>
<totfact> 0.16954213E+03</totfact>
</mgrwt>
</event>
<event>
 6      1 +1.8175624e-03 3.55272900e+02 7.81860800e-03 1.06047100e-01
       -2 -1    0    0    0  501 -0.0000000000e+00 +0.0000000000e+00 +9.0813615437e+01 9.0813615473e+01 2.5500000000e-03 0.0000e+00 1.0000e+00
        2 -1    0    0  501    0 +0.0000000000e+00 -0.0000000000e+00 -3.4746669134e+02 3.4746669135e+02 2.5500000000e-03 0.0000e+00 -1.0000e+00
      -13  1    1    2    0    0 +1.1968614450e+01 +2.2206491378e+01 +1.3281590016e+01 2.8509433326e+01 1.0566000000e-01 0.0000e+00 1.0000e+00
       13  1    1    2    0    0 +2.9926089072e+01 -7.9961743549e+01 -2.7223014754e+02 2.8530460149e+02 1.0566000000e-01 0.0000e+00 -1.0000e+00
      -13  1    1    2    0    0 +3.4138419123e+01 +1.6126826292e+01 +1.2539115711e+00 3.7776840057e+01 1.0566000000e-01 0.0000e+00 -1.0000e+00
       13  1    1    2    0    0 -7.6033122645e+01 +4.1628425879e+01 +1.0415700439e+00 8.6689431954e+01 1.0566000000e-01 0.0000e+00 1.0000e+00
<mgrwt>
<rscale>  0 0.35527289E+03</rscale>
<asrwt>0</asrwt>
<pdfrwt beam="1">  1        2 0.86866669E-01 0.35527289E+03</pdfrwt>
<pdfrwt beam="2">  1       -2 0.22703405E-01 0.35527289E+03</pdfrwt>
<totfact> 0.91494215E+02</totfact>
</mgrwt>
</event>
<event>
 6      1 +1.8175624e-03 3.55859000e+02 7.81860800e-03 1.06023600e-01
        1 -1    0    0  501    0 +0.0000000000e+00 +0.0000000000e+00 +5.0186266579e+02 5.0186266582e+02 5.0400000000e-03 0.0000e+00 -1.0000e+00
       -1 -1    0    0    0  501 -0.0000000000e+00 -0.0000000000e+00 -6.3082809782e+01 6.3082809984e+01 5.0400000000e-03 0.0000e+00 1.0000e+00
      -13  1    1    2    0    0 -1.4550353317e+01 +1.0687488764e+01 -2.8916137916e+01 3.4089432288e+01 1.0566000000e-01 0.0000e+00 1.0000e+00
       13  1    1    2    0    0 +9.2444350206e+01 +1.2155061138e+01 +3.2879293644e+02 3.4175796935e+02 1.0566000000e-01 0.0000e+00 -1.0000e+00
      -13  1    1    2    0    0 +1.8827998979e+01 +9.2113654795e+00 +6.3395004650e+00 2.1898475511e+01 1.0566000000e-01 0.0000e+00 -1.0000e+00
       13  1    1    2    0    0 -9.6721995868e+01 -3.2053915382e+01 +1.3256355702e+02 1.6719959865e+02 1.0566000000e-01 0.0000e+00 1.0000e+00
<mgrwt>
<rscale>  0 0.35585900E+03</rscale>
<asrwt>0</asrwt>
<pdfrwt beam="1">  1        1 0.12546566E+00 0.35585900E+03</pdfrwt>
<pdfrwt beam="2">  1       -1 0.15770703E-01 0.35585900E+03</pdfrwt>
<totfact> 0.66282399E+02</totfact>
</mgrwt>
</event>
<event>
 6      1 +1.8175624e-03 2.29221500e+02 7.81860800e-03 1.12718900e-01
       -2 -1    0    0    0  501 -0.0000000000e+00 +0.0000000000e+00 +8.2895381625e+01 8.2895381664e+01 2.5500000000e-03 0.0000e+00 1.0000e+00
        2 -1    0    0  501    0 +0.0000000000e+00 -0.0000000000e+00 -1.5846027359e+02 1.5846027361e+02 2.5500000000e-03 0.0000e+00 -1.0000e+00
      -13  1    1    2    0    0 +5.3257245104e+00 -3.1994054103e+01 +2.5912922851e+01 4.1514739241e+01 1.0566000000e-01 0.0000e+00 -1.0000e+00
       13  1    1    2    0    0 -6.1786615839e+01 +4.7327018698e+01 -4.9176174124e+01 9.2063781485e+01 1.0566000000e-01 0.0000e+00 -1.0000e+00
      -13  1    1    2    0    0 +2.5200997406e+01 -2.2064778096e+01 +1.2309750521e+01 3.5685933148e+01 1.0566000000e-01 0.0000e+00 1.0000e+00
       13  1    1    2    0    0 +3.1259893923e+01 +6.7318135009e+00 -6.4611391217e+01 7.2091201406e+01 1.0566000000e-01 0.0000e+00 1.0000e+00
<mgrwt>
<rscale>  0 0.22922151E+03</rscale>
<asrwt>0</asrwt>
<pdfrwt beam="1">  1        2 0.39615068E-01 0.22922151E+03</pdfrwt>
<pdfrwt beam="2">  1       -2 0.20723846E-01 0.22922151E+03</pdfrwt>
<totfact> 0.25291517E+03</totfact>
</mgrwt>
</event>
<event>
 6      1 +1.8175624e-03 3.48482900e+02 7.81860800e-03 1.06323900e-01
        2 -1    0    0  501    0 +0.0000000000e+00 +0.0000000000e+00 +3.4252403220e+02 3.4252403221e+02 2.5500000000e-03 0.0000e+00 -1.0000e+00
       -2 -1    0    0    0  501 -0.0000000000e+00 -0.0000000000e+00 -8.8636358884e+01 8.8636358921e+01 2.5500000000e-03 0.0000e+00 1.0000e+00
      -13  1    1    2    0    0 -1.6288617813e+01 -1.2463661800e+01 -1.9604802837e+00 2.0603800201e+01 1.0566000000e-01 0.0000e+00 1.0000e+00
       13  1    1    2    0    0 -1.0073124808e+02 +7.1802467004e+01 +5.1087140642e+01 1.3383678758e+02 1.0566000000e-01 0.0000e+00 1.0000e+00
      -13  1    1    2    0    0 +2.5730081939e+00 -1.0987186532e+01 -1.8237617478e+01 2.1446689590e+01 1.0566000000e-01 0.0000e+00 -1.0000e+00
       13  1    1    2    0    0 +1.1444685770e+02 -4.8351618672e+01 +2.2299863043e+02 2.5527311375e+02 1.0566000000e-01 0.0000e+00 -1.0000e+00
<mgrwt>
<rscale>  0 0.34848290E+03</rscale>
<asrwt>0</asrwt>
<pdfrwt beam="1">  1        2 0.85631007E-01 0.34848290E+03</pdfrwt>
<pdfrwt beam="2">  1       -2 0.22159090E-01 0.34848290E+03</pdfrwt>
<totfact> 0.97073585E+02</totfact>
</mgrwt>
</event>
<event>
 6      1 +1.8175624e-03 5.74925900e+02 7.81860800e-03 9.95883700e-02
       -1 -1    0    0    0  501 -0.0000000000e+00 +0.0000000000e+00 +2.0194577334e+02 2.0194577340e+02 5.0400000000e-03 0.0000e+00 -1.0000e+00
        1 -1    0    0  501    0 +0.0000000000e+00 -0.0000000000e+00 -4.0919368169e+02 4.0919368172e+02 5.0400000000e-03 0.0000e+00 1.0000e+00
      -13  1    1    2    0    0 -6.2270473185e+01 -6.3008874536e+01 -1.3247680929e+02 1.5936701750e+02 1.0566000000e-01 0.0000e+00 1.0000e+00
       13  1    1    2    0    0 +2.2698457166e+02 +3.2960291937e+00 -9.9342073093e+01 2.4779370095e+02 1.0566000000e-01 0.0000e+00 1.0000e+00
      -13  1    1    2    0    0 -1.2052010194e+02 +3.0422340443e+01 +6.2169682119e+01 1.3898091347e+02 1.0566000000e-01 0.0000e+00 -1.0000e+00
       13  1    1    2    0    0 -4.4193996536e+01 +2.9290504899e+01 -3.7598708082e+01 6.4997823198e+01 1.0566000000e-01 0.0000e+00 -1.0000e+00
<mgrwt>
<rscale>  0 0.57492585E+03</rscale>
<asrwt>0</asrwt>
<pdfrwt beam="1">  1        1 0.10229842E+00 0.57492585E+03</pdfrwt>
<pdfrwt beam="2">  1       -1 0.50486444E-01 0.57492585E+03</pdfrwt>
<totfact> 0.11958976E+02</totfact>
</mgrwt>
</event>
<event>
 6      1 +1.8175624e-03 6.03176300e+02 7.81860800e-03 9.89883800e-02
       -2 -1    0    0    0  501 -0.0000000000e+00 +0.0000000000e+00 +1.1986739197e+02 1.1986739199e+02 2.5500000000e-03 0.0000e+00 1.0000e+00
        2 -1    0    0  501    0 +0.0000000000e+00 -0.0000000000e+00 -7.5880027855e+02 7.5880027855e+02 2.5500000000e-03 0.0000e+00 -1.0000e+00
      -13  1    1    2    0    0 -7.3813539986e+00 +1.8553205593e+02 -1.5097582533e+02 2.3931222109e+02 1.0566000000e-01 0.0000e+00 1.0000e+00
       13  1    1    2    0    0 +6.0655606062e+01 +2.1669933987e+01 -2.7158170708e+01 6.9901831064e+01 1.0566000000e-01 0.0000e+00 -1.0000e+00
      -13  1    1    2    0    0 -1.3054019122e+02 -2.1198113238e+02 -2.9179703289e+02 3.8356519860e+02 1.0566000000e-01 0.0000e+00 1.0000e+00
       13  1    1    2    0    0 +7.7265939155e+01 +4.7791424622e+00 -1.6900185766e+02 1.8588841979e+02 1.0566000000e-01 0.0000e+00 -1.0000e+00
<mgrwt>
<rscale>  0 0.60317629E+03</rscale>
<asrwt>0</asrwt>
<pdfrwt beam="1">  1        2 0.18970006E+00 0.60317629E+03</pdfrwt>
<pdfrwt beam="2">  1       -2 0.29966850E-01 0.60317629E+03</pdfrwt>
<totfact> 0.19027767E+02</totfact>
</mgrwt>
</event>
<event>
 6      1 +1.8175624e-03 2.60596100e+02 7.81860800e-03 1.10678600e-01
       -2 -1    0    0    0  501 -0.0000000000e+00 +0.0000000000e+00 +3.3060996673e+01 3.3060996772e+01 2.5500000000e-03 0.0000e+00 1.0000e+00
        2 -1    0    0  501    0 +0.0000000000e+00 -0.0000000000e+00 -5.1352288742e+02 5.1352288743e+02 2.5500000000e-03 0.0000e+00 -1.0000e+00
      -13  1    1    2    0    0 -4.6498275855e+01 -7.9738047874e+01 -8.4586700243e+01 1.2520050702e+02 1.0566000000e-01 0.0000e+00 1.0000e+00
       13  1    1    2    0    0 +5.3486454053e+01 +5.2139397220e+00 -1.6939563227e+02 1.7771572055e+02 1.0566000000e-01 0.0000e+00 -1.0000e+00
      -13  1    1    2    0    0 -2.0006612335e+01 +6.6332580734e+01 -2.0995869092e+02 2.2109486394e+02 1.0566000000e-01 0.0000e+00 1.0000e+00
       13  1    1    2    0    0 +1.3018434137e+01 +8.1915274173e+00 -1.6520867312e+01 2.2572792684e+01 1.0566000000e-01 0.0000e+00 -1.0000e+00
<mgrwt>
<rscale>  0 0.26059607E+03</rscale>
<asrwt>0</asrwt>
<pdfrwt beam="1">  1        2 0.12838070E+00 0.26059607E+03</pdfrwt>
<pdfrwt beam="2">  1       -2 0.82652508E-02 0.26059607E+03</pdfrwt>
<totfact> 0.30079526E+03</totfact>
</mgrwt>
</event>
<event>
 6      1 +1.8175624e-03 4.32895900e+02 7.81860800e-03 1.03294900e-01
       -2 -1    0    0    0  501 -0.0000000000e+00 +0.0000000000e+00 +9.4487182084e+01 9.4487182119e+01 2.5500000000e-03 0.0000e+00 1.0000e+00
        2 -1    0    0  501    0 +0.0000000000e+00 -0.0000000000e+00 -4.9583151755e+02 4.9583151755e+02 2.5500000000e-03 0.0000e+00 -1.0000e+00
      -13  1    1    2    0    0 +1.3498576019e+00 -2.4997442252e+01 +1.6213566801e+01 2.9825914020e+01 1.0566000000e-01 0.0000e+00 -1.0000e+00
       13  1    1    2    0    0 -1.2815608477e+02 -7.2190345174e+01 -6.8072642670e+01 1.6207814117e+02 1.0566000000e-01 0.0000e+00 -1.0000e+00
      -13  1    1    2    0    0 +7.5923086026e+01 +1.1029086177e+02 -2.0680407085e+02 2.4636623970e+02 1.0566000000e-01 0.0000e+00 1.0000e+00
       13  1    1    2    0    0 +5.0883141146e+01 -1.3103074345e+01 -1.4268118874e+02 1.5204840478e+02 1.0566000000e-01 0.0000e+00 1.0000e+00
<mgrwt>
<rscale>  0 0.43289594E+03</rscale>
<asrwt>0</asrwt>
<pdfrwt beam="1">  1        2 0.12395787E+00 0.43289594E+03</pdfrwt>
<pdfrwt beam="2">  1       -2 0.23621797E-01 0.43289594E+03</pdfrwt>
<totfact> 0.55059643E+02</totfact>
</mgrwt>
</event>
<event>
 6      1 +1.8175624e-03 3.07303800e+02 7.81860800e-03 1.08164500e-01
       -2 -1    0    0    0  501 -0.0000000000e+00 +0.0000000000e+00 +1.7396775351e+02 1.7396775353e+02 2.5500000000e-03 0.0000e+00 -1.0000e+00
        2 -1    0    0  501    0 +0.0000000000e+00 -0.0000000000e+00 -1.3570854754e+02 1.3570854756e+02 2.5500000000e-03 0.0000e+00 1.0000e+00
      -13  1    1    2    0    0 -1.2427777595e+01 -6.0347582658e+00 -2.1263903614e+01 2.5358089916e+01 1.0566000000e-01 0.0000e+00 1.0000e+00
       13  1    1    2    0    0 +7.1509464910e+01 +9.4430087653e+01 +6.4836622792e+01 1.3503497267e+02 1.0566000000e-01 0.0000e+00 -1.0000e+00
      -13  1    1    2    0    0 -6.4051198683e+01 -3.4767367882e+01 +3.6113384681e+01 8.1335807855e+01 1.0566000000e-01 0.0000e+00 -1.0000e+00
       13  1    1    2    0    0 +4.9695113679e+00 -5.3627961505e+01 -4.1426897891e+01 6.7947430645e+01 1.0566000000e-01 0.0000e+00 1.0000e+00
<mgrwt>
<rscale>  0 0.30730383E+03</rscale>
<asrwt>0</asrwt>
<pdfrwt beam="1">  1        2 0.33927137E-01 0.30730383E+03</pdfrwt>
<pdfrwt beam="2">  1       -2 0.43491938E-01 0.30730383E+03</pdfrwt>
<totfact> 0.77760365E+02</totfact>
</mgrwt>
</event>
<event>
 6      1 +1.8175624e-03 1.88818300e+02 7.81860800e-03 1.15953100e-01
       -4 -1    0    0    0  501 -0.0000000000e+00 +0.0000000000e+00 +1.3043753653e+02 1.3044371903e+02 1.2700000000e+00 0.0000e+00 -1.0000e+00
        4 -1    0    0  501    0 +0.0000000000e+00 -0.0000000000e+00 -6.8318550184e+01 6.8330353426e+01 1.2700000000e+00 0.0000e+00 1.0000e+00
      -13  1    1    2    0    0 +4.4551349049e+01 -2.2152596105e+00 -4.1691357595e+00 4.4800925596e+01 1.0566000000e-01 0.0000e+00 -1.0000e+00
       13  1    1    2    0    0 -4.0593834333e+01 +1.3733228549e+00 +3.1428643235e+01 5.1356753998e+01 1.0566000000e-01 0.0000e+00 1.0000e+00
      -13  1    1    2    0    0 -3.5509414559e+01 -2.4302035019e+01 +4.3683877027e+01 6.1317205616e+01 1.0566000000e-01 0.0000e+00 1.0000e+00
       13  1    1    2    0    0 +3.1551899843e+01 +2.5143971775e+01 -8.8243981617e+00 4.1299187247e+01 1.0566000000e-01 0.0000e+00 -1.0000e+00
<mgrwt>
<rscale>  0 0.18881833E+03</rscale>
<asrwt>0</asrwt>
<pdfrwt beam="1">  1        4 0.17081886E-01 0.18881833E+03</pdfrwt>
<pdfrwt beam="2">  1       -4 0.32611632E-01 0.18881833E+03</pdfrwt>
<totfact> 0.47828752E+02</totfact>
</mgrwt>
</event>
<event>
 6      1 +1.8175624e-03 3.62220300e+02 7.81860800e-03 1.05770800e-01
        2 -1    0    0  501    0 +0.0000000000e+00 +0.0000000000e+00 +8.1262552112e+02 8.1262552112e+02 2.5500000000e-03 0.0000e+00 -1.0000e+00
       -2 -1    0    0    0  501 -0.0000000000e+00 -0.0000000000e+00 -4.0364077739e+01 4.0364077819e+01 2.5500000000e-03 0.0000e+00 1.0000e+00
      -13  1    1    2    0    0 -3.9632337460e+01 -4.9891553354e+01 +1.8707670823e+02 1.9762994509e+02 1.0566000000e-01 0.0000e+00 -1.0000e+00
       13  1    1    2    0    0 -2.7319369035e+00 +8.1725624981e+01 +3.5686861929e+02 3.6611714499e+02 1.0566000000e-01 0.0000e+00 -1.0000e+00
      -13  1    1    2    0    0 +8.7226823058e+01 -7.5030961682e+01 +1.4087497409e+02 1.8188989351e+02 1.0566000000e-01 0.0000e+00 1.0000e+00
       13  1    1    2    0    0 -4.4862548694e+01 +4.3196890056e+01 +8.7441141763e+01 1.0735261535e+02 1.0566000000e-01 0.0000e+00 1.0000e+00
<mgrwt>
<rscale>  0 0.36222026E+03</rscale>
<asrwt>0</asrwt>
<pdfrwt beam="1">  1        2 0.20315638E+00 0.36222026E+03</pdfrwt>
<pdfrwt beam="2">  1       -2 0.10091019E-01 0.36222026E+03</pdfrwt>
<totfact> 0.11141263E+03</totfact>
</mgrwt>
</event>
<event>
 6      1 +1.8175624e-03 1.80962900e+02 7.81860800e-03 1.16687400e-01
       -2 -1    0    0    0  501 -0.0000000000e+00 +0.0000000000e+00 +4.9010364911e+01 4.9010364977e+01 2.5500000000e-03 0.0000e+00 1.0000e+00
        2 -1    0    0  501    0 +0.0000000000e+00 -0.0000000000e+00 -1.6704414183e+02 1.6704414185e+02 2.5500000000e-03 0.0000e+00 -1.0000e+00
      -13  1    1    2    0    0 -1.7108059137e+00 -1.5501345968e+01 +1.1965162410e+01 1.9656929039e+01 1.0566000000e-01 0.0000e+00 1.0000e+00
       13  1    1    2    0    0 +3.4994653912e+01 -9.9381842611e+00 -8.7098448358e+01 9.4390381815e+01 1.0566000000e-01 0.0000e+00 -1.0000e+00
      -13  1    1    2    0    0 -5.6010073714e+01 -1.6302293444e+00 -1.8309935149e+01 5.8949562291e+01 1.0566000000e-01 0.0000e+00 1.0000e+00
       13  1    1    2    0    0 +2.2726225716e+01 +2.7069759574e+01 -2.4590555824e+01 4.3057633683e+01 1.0566000000e-01 0.0000e+00 -1.0000e+00
<mgrwt>
<rscale>  0 0.18096292E+03</rscale>
<asrwt>0</asrwt>
<pdfrwt beam="1">  1        2 0.41761034E-01 0.18096292E+03</pdfrwt>
<pdfrwt beam="2">  1       -2 0.12252592E-01 0.18096292E+03</pdfrwt>
<totfact> 0.56636065E+03</totfact>
</mgrwt>
</event>
<event>
 6      1 +1.8175624e-03 2.02058300e+02 7.81860800e-03 1.14801400e-01
        2 -1    0    0  501    0 +0.0000000000e+00 +0.0000000000e+00 +5.8595104304e+01 5.8595104360e+01 2.5500000000e-03 0.0000e+00 -1.0000e+00
       -2 -1    0    0    0  501 -0.0000000000e+00 -0.0000000000e+00 -1.7419359969e+02 1.7419359970e+02 2.5500000000e-03 0.0000e+00 1.0000e+00
      -13  1    1    2    0    0 -2.0026030243e+01 -3.3785294828e+01 +6.8458190929e+00 3.9866833797e+01 1.0566000000e-01 0.0000e+00 1.0000e+00
       13  1    1    2    0    0 -8.1936521359e+00 +7.6159014005e+01 -7.9255080319e+01 1.1022118794e+02 1.0566000000e-01 0.0000e+00 1.0000e+00
      -13  1    1    2    0    0 -8.4313902873e+00 -3.0741322144e+01 -1.6507119393e+01 3.5897261512e+01 1.0566000000e-01 0.0000e+00 -1.0000e+00
       13  1    1    2    0    0 +3.6651072666e+01 -1.1632397033e+01 -2.6682114762e+01 4.6803420821e+01 1.0566000000e-01 0.0000e+00 -1.0000e+00
<mgrwt>
<rscale>  0 0.20205833E+03</rscale>
<asrwt>0</asrwt>
<pdfrwt beam="1">  1        2 0.14648776E-01 0.20205833E+03</pdfrwt>
<pdfrwt beam="2">  1       -2 0.43548399E-01 0.20205833E+03</pdfrwt>
<totfact> 0.19973716E+03</totfact>
</mgrwt>
</event>
<event>
 6      1 +1.8175624e-03 1.95532800e+02 7.81860800e-03 1.15356400e-01
       -2 -1    0    0    0  501 -0.0000000000e+00 +0.0000000000e+00 +4.1976515462e+01 4.1976515540e+01 2.5500000000e-03 0.0000e+00 1.0000e+00
        2 -1    0    0  501    0 +0.0000000000e+00 -0.0000000000e+00 -2.2770505202e+02 2.2770505204e+02 2.5500000000e-03 0.0000e+00 -1.0000e+00
      -13  1    1    2    0    0 -3.0257065881e+01 -8.1200708517e+00 -9.7232833087e+01 1.0215508103e+02 1.0566000000e-01 0.0000e+00 1.0000e+00
       13  1    1    2    0    0 -3.2564425503e+01 +1.0993609142e+01 +1.2706973390e+01 3.6643957034e+01 1.0566000000e-01 0.0000e+00 1.0000e+00
      -13  1    1    2    0    0 +9.2006606335e+00 +8.9643821311e+00 -6.2239732530e+01 6.3551615027e+01 1.0566000000e-01 0.0000e+00 -1.0000e+00
       13  1    1    2    0    0 +5.3620830750e+01 -1.1837920422e+01 -3.8962944334e+01 6.7330914485e+01 1.0566000000e-01 0.0000e+00 -1.0000e+00
<mgrwt>
<rscale>  0 0.19553276E+03</rscale>
<asrwt>0</asrwt>
<pdfrwt beam="1">  1        2 0.56926260E-01 0.19553276E+03</pdfrwt>
<pdfrwt beam="2">  1       -2 0.10494130E-01 0.19553276E+03</pdfrwt>
<totfact> 0.52276787E+03</totfact>
</mgrwt>
</event>
<event>
 6      1 +1.8175624e-03 4.65521600e+02 7.81860800e-03 1.02319200e-01
        2 -1    0    0  501    0 +0.0000000000e+00 +0.0000000000e+00 +6.9861560389e+02 6.9861560389e+02 2.5500000000e-03 0.0000e+00 -1.0000e+00
       -2 -1    0    0    0  501 -0.0000000000e+00 -0.0000000000e+00 -7.7549926532e+01 7.7549926574e+01 2.5500000000e-03 0.0000e+00 1.0000e+00
      -13  1    1    2    0    0 -6.9642300434e+01 -7.7116001312e+01 +8.0571039196e+01 1.3148623954e+02 1.0566000000e-01 0.0000e+00 1.0000e+00
       13  1    1    2    0    0 +1.4030024987e+01 +1.6331740810e+02 +4.1860268181e+02 4.4955270411e+02 1.0566000000e-01 0.0000e+00 -1.0000e+00
      -13  1    1    2    0    0 +5.7377142556e+01 -1.1190349742e+02 +1.0849082472e+02 1.6608672264e+02 1.0566000000e-01 0.0000e+00 1.0000e+00
       13  1    1    2    0    0 -1.7648671089e+00 +2.5702090630e+01 +1.3401131631e+01 2.9039864182e+01 1.0566000000e-01 0.0000e+00 -1.0000e+00
<mgrwt>
<rscale>  0 0.46552159E+03</rscale>
<asrwt>0</asrwt>
<pdfrwt beam="1">  1        2 0.17465390E+00 0.46552159E+03</pdfrwt>
<pdfrwt beam="2">  1       -2 0.19387482E-01 0.46552159E+03</pdfrwt>
<totfact> 0.47779135E+02</totfact>
</mgrwt>
</event>
<event>
 7      1 +1.8175624e-03 9.58450900e+01 7.81860800e-03 1.28928400e-01
       -2 -1    0    0    0  501 -0.0000000000e+00 +0.0000000000e+00 +2.3785949892e+01 2.3785950029e+01 2.5500000000e-03 0.0000e+00 -1.0000e+00
        2 -1    0    0  501    0 +0.0000000000e+00 -0.0000000000e+00 -9.6551558652e+01 9.6551558685e+01 2.5500000000e-03 0.0000e+00 1.0000e+00
       23  2    1    2    0    0 +0.0000000000e+00 +3.5527136788e-15 -7.2765608760e+01 1.2033750871e+02 9.5845094738e+01 0.0000e+00 0.0000e+00
      -13  1    3    3    0    0 -1.2783565715e+01 -1.0388093369e+01 -1.1883341948e+01 2.0311499603e+01 1.0566000000e-01 0.0000e+00 -1.0000e+00
       13  1    3    3    0    0 +1.1874180619e+01 +6.7090811659e+00 -4.8425843322e+01 5.0309853915e+01 1.0566000000e-01 0.0000e+00 1.0000e+00
      -13  1    3    3    0    0 -7.3325646702e+00 +1.7672983867e+01 +1.0322005070e+01 2.1740648935e+01 1.0566000000e-01 0.0000e+00 -1.0000e+00
       13  1    3    3    0    0 +8.2419497662e+00 -1.3993971664e+01 -2.2778428560e+01 2.7975506261e+01 1.0566000000e-01 0.0000e+00 1.0000e+00
<mgrwt>
<rscale>  0 0.95845095E+02</rscale>
<asrwt>0</asrwt>
<pdfrwt beam="1">  1        2 0.24137889E-01 0.95845095E+02</pdfrwt>
<pdfrwt beam="2">  1       -2 0.59464877E-02 0.95845095E+02</pdfrwt>
<totfact> 0.29771562E+04</totfact>
</mgrwt>
</event>
<event>
 6      1 +1.8175624e-03 2.87029800e+02 7.81860800e-03 1.09191000e-01
        2 -1    0    0  501    0 +0.0000000000e+00 +0.0000000000e+00 +4.4048824131e+02 4.4048824131e+02 2.5500000000e-03 0.0000e+00 -1.0000e+00
       -2 -1    0    0    0  501 -0.0000000000e+00 -0.0000000000e+00 -4.6758404514e+01 4.6758404584e+01 2.5500000000e-03 0.0000e+00 1.0000e+00
      -13  1    1    2    0    0 +4.3622710111e+01 -4.6023259769e+01 +2.9921050537e+01 7.0116771934e+01 1.0566000000e-01 0.0000e+00 -1.0000e+00
       13  1    1    2    0    0 +1.4190243547e+01 -3.0068183548e+01 +5.3035585558e+01 6.2595871856e+01 1.0566000000e-01 0.0000e+00 -1.0000e+00
      -13  1    1    2    0    0 -2.0471360112e+01 +1.1392994512e+02 +2.3512547475e+02 2.6207462491e+02 1.0566000000e-01 0.0000e+00 1.0000e+00
       13  1    1    2    0    0 -3.7341593546e+01 -3.7838501803e+01 +7.5647725944e+01 9.2459377198e+01 1.0566000000e-01 0.0000e+00 1.0000e+00
<mgrwt>
<rscale>  0 0.28702981E+03</rscale>
<asrwt>0</asrwt>
<pdfrwt beam="1">  1        2 0.11012206E+00 0.28702981E+03</pdfrwt>
<pdfrwt beam="2">  1       -2 0.11689601E-01 0.28702981E+03</pdfrwt>
<totfact> 0.21039021E+03</totfact>
</mgrwt>
</event>
<event>
 6      1 +1.8175624e-03 2.87806800e+02 7.81860800e-03 1.09150000e-01
       -2 -1    0    0    0  501 -0.0000000000e+00 +0.0000000000e+00 +1.0035422984e+02 1.0035422987e+02 2.5500000000e-03 0.0000e+00 1.0000e+00
        2 -1    0    0  501    0 +0.0000000000e+00 -0.0000000000e+00 -2.0635088226e+02 2.0635088228e+02 2.5500000000e-03 0.0000e+00 -1.0000e+00
      -13  1    1    2    0    0 +1.0807906511e+02 +1.0122401977e+01 -4.0371115047e+01 1.1581617085e+02 1.0566000000e-01 0.0000e+00 1.0000e+00
       13  1    1    2    0    0 -1.1505759871e+01 +2.2936455938e+01 +1.3252542598e+01 2.8880868591e+01 1.0566000000e-01 0.0000e+00 1.0000e+00
      -13  1    1    2    0    0 -3.0000508260e+01 -5.1027401264e+01 -7.1252735603e+01 9.2632551895e+01 1.0566000000e-01 0.0000e+00 -1.0000e+00
       13  1    1    2    0    0 -6.6572796977e+01 +1.7968543349e+01 -7.6253443752e+00 6.9375520814e+01 1.0566000000e-01 0.0000e+00 -1.0000e+00
<mgrwt>
<rscale>  0 0.28780677E+03</rscale>
<asrwt>0</asrwt>
<pdfrwt beam="1">  1        2 0.51587720E-01 0.28780677E+03</pdfrwt>
<pdfrwt beam="2">  1       -2 0.25088558E-01 0.28780677E+03</pdfrwt>
<totfact> 0.13688744E+03</totfact>
</mgrwt>
</event>
<event>
 6      1 +1.8175624e-03 3.71202400e+02 7.81860800e-03 1.05423400e-01
        2 -1    0    0  501    0 +0.0000000000e+00 +0.0000000000e+00 +1.1340988011e+02 1.1340988014e+02 2.5500000000e-03 0.0000e+00 1.0000e+00
       -2 -1    0    0    0  501 -0.0000000000e+00 -0.0000000000e+00 -3.0374612484e+02 3.0374612485e+02 2.5500000000e-03 0.0000e+00 -1.0000e+00
      -13  1    1    2    0    0 -1.9692756586e+01 +8.2017145716e-01 +4.5814694687e+01 4.9874590289e+01 1.0566000000e-01 0.0000e+00 -1.0000e+00
       13  1    1    2    0    0 -5.2841939743e+01 +6.2142030750e+01 +1.1669444533e+01 8.2402000469e+01 1.0566000000e-01 0.0000e+00 1.0000e+00
      -13  1    1    2    0    0 +6.1158304511e+01 -9.1234531729e+01 -1.9994104566e+02 2.2812389374e+02 1.0566000000e-01 0.0000e+00 -1.0000e+00
       13  1    1    2    0    0 +1.1376391818e+01 +2.8272329522e+01 -4.7879338289e+01 5.6755520493e+01 1.0566000000e-01 0.0000e+00 1.0000e+00
<mgrwt>
<rscale>  0 0.37120243E+03</rscale>
<asrwt>0</asrwt>
<pdfrwt beam="1">  1        2 0.28352471E-01 0.37120243E+03</pdfrwt>
<pdfrwt beam="2">  1       -2 0.75936530E-01 0.37120243E+03</pdfrwt>
<totfact> 0.29926412E+02</totfact>
</mgrwt>
</event>
<event>
 6      1 +1.8175624e-03 2.94132900e+02 7.81860800e-03 1.08821100e-01
        2 -1    0    0  501    0 +0.0000000000e+00 +0.0000000000e+00 +6.6055559364e+02 6.6055559364e+02 2.5500000000e-03 0.0000e+00 -1.0000e+00
       -2 -1    0    0    0  501 -0.0000000000e+00 -0.0000000000e+00 -3.2742943501e+01 3.2742943601e+01 2.5500000000e-03 0.0000e+00 1.0000e+00
      -13  1    1    2    0    0 -6.3885115794e+01 -1.2480359467e+01 +1.9045352788e+02 2.0127002966e+02 1.0566000000e-01 0.0000e+00 1.0000e+00
       13  1    1    2    0    0 -2.4271896396e+00 +5.9289242126e+01 +2.1299504017e+02 2.2110631783e+02 1.0566000000e-01 0.0000e+00 -1.0000e+00
      -13  1    1    2    0    0 +3.5001423381e+01 -8.7156167654e+01 +1.0378695877e+02 1.3997514484e+02 1.0566000000e-01 0.0000e+00 1.0000e+00
       13  1    1    2    0    0 +3.1310882052e+01 +4.0347284994e+01 +1.2057712330e+02 1.3094704491e+02 1.0566000000e-01 0.0000e+00 -1.0000e+00
<mgrwt>
<rscale>  0 0.29413286E+03</rscale>
<asrwt>0</asrwt>
<pdfrwt beam="1">  1        2 0.16513891E+00 0.29413286E+03</pdfrwt>
<pdfrwt beam="2">  1       -2 0.81857355E-02 0.29413286E+03</pdfrwt>
<totfact> 0.21599329E+03</totfact>
</mgrwt>
</event>
<event>
 6      1 +1.8175624e-03 2.00978100e+02 7.81860800e-03 1.14891600e-01
       -1 -1    0    0    0  501 -0.0000000000e+00 +0.0000000000e+00 +6.0461960310e+01 6.0461960520e+01 5.0400000000e-03 0.0000e+00 1.0000e+00
        1 -1    0    0  501    0 +0.0000000000e+00 -0.0000000000e+00 -1.6701497830e+02 1.6701497838e+02 5.0400000000e-03 0.0000e+00 -1.0000e+00
      -13  1    1    2    0    0 +7.6989374614e+00 +5.5988585553e+01 +1.0553380095e+01 5.7492437292e+01 1.0566000000e-01 0.0000e+00 -1.0000e+00
       13  1    1    2    0    0 -3.7902061734e+01 -2.4386231520e+01 -2.7168793392e+01 5.2625175248e+01 1.0566000000e-01 0.0000e+00 1.0000e+00
      -13  1    1    2    0    0 +3.6680319130e+01 -4.5227670712e+01 -8.1208682943e+01 9.9929221746e+01 1.0566000000e-01 0.0000e+00 1.0000e+00
       13  1    1    2    0    0 -6.4771948569e+00 +1.3625316679e+01 -8.7289217530e+00 1.7430104613e+01 1.0566000000e-01 0.0000e+00 -1.0000e+00
<mgrwt>
<rscale>  0 0.20097814E+03</rscale>
<asrwt>0</asrwt>
<pdfrwt beam="1">  1        1 0.41753744E-01 0.20097814E+03</pdfrwt>
<pdfrwt beam="2">  1       -1 0.15115490E-01 0.20097814E+03</pdfrwt>
<totfact> 0.31099613E+03</totfact>
</mgrwt>
</event>
<event>
 6      1 +1.8175624e-03 2.62598400e+02 7.81860800e-03 1.10559200e-01
       -3 -1    0    0    0  501 -0.0000000000e+00 +0.0000000000e+00 +8.2550507267e+01 8.2550569053e+01 1.0100000000e-01 0.0000e+00 1.0000e+00
        3 -1    0    0  501    0 +0.0000000000e+00 -0.0000000000e+00 -2.0883537525e+02 2.0883539967e+02 1.0100000000e-01 0.0000e+00 -1.0000e+00
      -13  1    1    2    0    0 +6.6798818250e+01 -4.4178598160e+01 -1.2513454716e+02 1.4856815510e+02 1.0566000000e-01 0.0000e+00 -1.0000e+00
       13  1    1    2    0    0 -2.2711160757e+00 +2.5296565107e+01 -1.5722026278e+00 2.5447144429e+01 1.0566000000e-01 0.0000e+00 -1.0000e+00
      -13  1    1    2    0    0 -3.0336188254e+01 +3.2271576574e+01 +4.2596330486e+01 6.1450773040e+01 1.0566000000e-01 0.0000e+00 1.0000e+00
       13  1    1    2    0    0 -3.4191513920e+01 -1.3389543521e+01 -4.2174448682e+01 5.5919896151e+01 1.0566000000e-01 0.0000e+00 1.0000e+00
<mgrwt>
<rscale>  0 0.26259839E+03</rscale>
<asrwt>0</asrwt>
<pdfrwt beam="1">  1        3 0.52208854E-01 0.26259839E+03</pdfrwt>
<pdfrwt beam="2">  1       -3 0.20637638E-01 0.26259839E+03</pdfrwt>
<totfact> 0.19490429E+02</totfact>
</mgrwt>
</event>
<event>
 6      1 +1.8175624e-03 2.20727900e+02 7.81860800e-03 1.13334200e-01
        2 -1    0    0  501    0 +0.0000000000e+00 +0.0000000000e+00 +2.2757123814e+02 2.2757123815e+02 2.5500000000e-03 0.0000e+00 1.0000e+00
       -2 -1    0    0    0  501 -0.0000000000e+00 -0.0000000000e+00 -5.3522589428e+01 5.3522589489e+01 2.5500000000e-03 0.0000e+00 -1.0000e+00
      -13  1    1    2    0    0 -9.3688042224e+00 -6.9140205269e+01 +4.6505881931e+01 8.3850764429e+01 1.0566000000e-01 0.0000e+00 -1.0000e+00
       13  1    1    2    0    0 +1.6469881659e+01 +3.1915705096e+01 +1.6858505513e+01 3.9674798119e+01 1.0566000000e-01 0.0000e+00 1.0000e+00
      -13  1    1    2    0    0 +6.4674178779e+00 +1.5442611408e+01 -1.9026056574e+01 2.5343711920e+01 1.0566000000e-01 0.0000e+00 -1.0000e+00
       13  1    1    2    0    0 -1.3568495314e+01 +2.1781888765e+01 +1.2971031784e+02 1.3222455317e+02 1.0566000000e-01 0.0000e+00 1.0000e+00
<mgrwt>
<rscale>  0 0.22072790E+03</rscale>
<asrwt>0</asrwt>
<pdfrwt beam="1">  1        2 0.56892808E-01 0.22072790E+03</pdfrwt>
<pdfrwt beam="2">  1       -2 0.13380648E-01 0.22072790E+03</pdfrwt>
<totfact> 0.35549763E+03</totfact>
</mgrwt>
</event>
<event>
 6      1 +1.8175624e-03 5.18286400e+02 7.81860800e-03 1.00911300e-01
        1 -1    0    0  501    0 +0.0000000000e+00 +0.0000000000e+00 +4.1323755733e+02 4.1323755736e+02 5.0400000000e-03 0.0000e+00 -1.0000e+00
       -1 -1    0    0    0  501 -0.0000000000e+00 -0.0000000000e+00 -1.6250990597e+02 1.6250990605e+02 5.0400000000e-03 0.0000e+00 1.0000e+00
      -13  1    1    2    0    0 +2.4684947164e+01 -3.5873684118e+01 +3.7395855325e+01 5.7399729862e+01 1.0566000000e-01 0.0000e+00 -1.0000e+00
       13  1    1    2    0    0 +5.9361101101e+01 +1.3422631986e+02 +2.5606746112e+02 2.9514572854e+02 1.0566000000e-01 0.0000e+00 -1.0000e+00
      -13  1    1    2    0    0 -7.0025315790e+01 -1.4997282925e+02 -2.9928561882e+01 1.6819965620e+02 1.0566000000e-01 0.0000e+00 1.0000e+00
       13  1    1    2    0    0 -1.4020732475e+01 +5.1620193515e+01 -1.2807103207e+01 5.5002348807e+01 1.0566000000e-01 0.0000e+00 1.0000e+00
<mgrwt>
<rscale>  0 0.51828639E+03</rscale>
<asrwt>0</asrwt>
<pdfrwt beam="1">  1        1 0.10330939E+00 0.51828639E+03</pdfrwt>
<pdfrwt beam="2">  1       -1 0.40627477E-01 0.51828639E+03</pdfrwt>
<totfact> 0.17696877E+02</totfact>
</mgrwt>
</event>
<event>
 6      1 +1.8175624e-03 1.89760900e+02 7.81860800e-03 1.15867700e-01
       -2 -1    0    0    0  501 -0.0000000000e+00 +0.0000000000e+00 +2.0671914986e+02 2.0671914988e+02 2.5500000000e-03 0.0000e+00 -1.0000e+00
        2 -1    0    0  501    0 +0.0000000000e+00 -0.0000000000e+00 -4.3548462106e+01 4.3548462181e+01 2.5500000000e-03 0.0000e+00 1.0000e+00
      -13  1    1    2    0    0 +1.7049146739e+01 +6.3503573990e+00 +8.7323511004e+00 2.0180821673e+01 1.0566000000e-01 0.0000e+00 1.0000e+00
       13  1    1    2    0    0 +8.1262377759e+00 -6.1329685546e+01 -2.9966419837e-01 6.1866525943e+01 1.0566000000e-01 0.0000e+00 1.0000e+00
      -13  1    1    2    0    0 -1.7692197816e+01 +2.2032595122e+01 +4.2733835847e+01 5.1231250244e+01 1.0566000000e-01 0.0000e+00 -1.0000e+00
       13  1    1    2    0    0 -7.4831866988e+00 +3.2946733025e+01 +1.1200416501e+02 1.1698901420e+02 1.0566000000e-01 0.0000e+00 -1.0000e+00
<mgrwt>
<rscale>  0 0.18976091E+03</rscale>
<asrwt>0</asrwt>
<pdfrwt beam="1">  1        2 0.10887116E-01 0.18976091E+03</pdfrwt>
<pdfrwt beam="2">  1       -2 0.51679786E-01 0.18976091E+03</pdfrwt>
<totfact> 0.20343101E+03</totfact>
</mgrwt>
</event>
<event>
 6      1 +1.8175624e-03 2.95356100e+02 7.81860800e-03 1.08758500e-01
        2 -1    0    0  501    0 +0.0000000000e+00 +0.0000000000e+00 +6.2279868994e+02 6.2279868995e+02 2.5500000000e-03 0.0000e+00 -1.0000e+00
       -2 -1    0    0    0  501 -0.0000000000e+00 -0.0000000000e+00 -3.5017435362e+01 3.5017435455e+01 2.5500000000e-03 0.0000e+00 1.0000e+00
      -13  1    1    2    0    0 +2.6909797885e+01 +3.7688411993e+01 +1.7568854833e+02 1.8168937998e+02 1.0566000000e-01 0.0000e+00 1.0000e+00
       13  1    1    2    0    0 +7.9102142980e+01 +1.3394326264e+01 +8.5241105857e+01 1.1705816628e+02 1.0566000000e-01 0.0000e+00 1.0000e+00
      -13  1    1    2    0    0 -1.7175751078e+01 +2.5898242161e+01 +6.5503726722e+01 7.2501549988e+01 1.0566000000e-01 0.0000e+00 -1.0000e+00
       13  1    1    2    0    0 -8.8836189788e+01 -7.6980980418e+01 +2.6134787367e+02 2.8656702916e+02 1.0566000000e-01 0.0000e+00 -1.0000e+00
<mgrwt>
<rscale>  0 0.29535614E+03</rscale>
<asrwt>0</asrwt>
<pdfrwt beam="1">  1        2 0.15569967E+00 0.29535614E+03</pdfrwt>
<pdfrwt beam="2">  1       -2 0.87543592E-02 0.29535614E+03</pdfrwt>
<totfact> 0.21161500E+03</totfact>
</mgrwt>
</event>
<event>
 6      1 +1.8175624e-03 4.15109900e+02 7.81860800e-03 1.03867000e-01
        2 -1    0    0  501    0 +0.0000000000e+00 +0.0000000000e+00 +3.8592389345e+02 3.8592389346e+02 2.5500000000e-03 0.0000e+00 -1.0000e+00
       -2 -1    0    0    0  501 -0.0000000000e+00 -0.0000000000e+00 -1.1162580199e+02 1.1162580202e+02 2.5500000000e-03 0.0000e+00 1.0000e+00
      -13  1    1    2    0    0 +7.5799664975e+00 -7.3432661061e+01 +1.2571204533e+02 1.4578525682e+02 1.0566000000e-01 0.0000e+00 -1.0000e+00
       13  1    1    2    0    0 -7.3669258197e+01 +1.5961139623e+02 +7.8745350294e+01 1.9262346369e+02 1.0566000000e-01 0.0000e+00 1.0000e+00
      -13  1    1    2    0    0 +1.6907898457e+01 +1.8116675957e+01 +2.5616720983e+01 3.5641528249e+01 1.0566000000e-01 0.0000e+00 -1.0000e+00
       13  1    1    2    0    0 +4.9181393243e+01 -1.0429541112e+02 +4.4223974859e+01 1.2349944671e+02 1.0566000000e-01 0.0000e+00 1.0000e+00
<mgrwt>
<rscale>  0 0.41510993E+03</rscale>
<asrwt>0</asrwt>
<pdfrwt beam="1">  1        2 0.96480972E-01 0.41510993E+03</pdfrwt>
<pdfrwt beam="2">  1       -2 0.27906451E-01 0.41510993E+03</pdfrwt>
<totfact> 0.55854756E+02</totfact>
</mgrwt>
</event>
<event>
 6      1 +1.8175624e-03 3.40266900e+02 7.81860800e-03 1.06668200e-01
       -2 -1    0    0    0  501 -0.0000000000e+00 +0.0000000000e+00 +2.6690696026e+01 2.6690696148e+01 2.5500000000e-03 0.0000e+00 1.0000e+00
        2 -1    0    0  501    0 +0.0000000000e+00 -0.0000000000e+00 -1.0844746863e+03 1.0844746863e+03 2.5500000000e-03 0.0000e+00 -1.0000e+00
      -13  1    1    2    0    0 +1.3148727101e+01 -2.5065128939e+01 -1.0225936842e+02 1.0610437930e+02 1.0566000000e-01 0.0000e+00 -1.0000e+00
       13  1    1    2    0    0 -1.2757429771e+02 +5.6374977368e+00 -5.1160656762e+02 5.2730282951e+02 1.0566000000e-01 0.0000e+00 1.0000e+00
      -13  1    1    2    0    0 +1.9546092941e+01 -1.5926471780e+01 -3.0321530241e+00 2.5395026454e+01 1.0566000000e-01 0.0000e+00 1.0000e+00
       13  1    1    2    0    0 +9.4879477666e+01 +3.5354102982e+01 -4.4088590116e+02 4.5236314713e+02 1.0566000000e-01 0.0000e+00 -1.0000e+00
<mgrwt>
<rscale>  0 0.34026686E+03</rscale>
<asrwt>0</asrwt>
<pdfrwt beam="1">  1        2 0.27111852E+00 0.34026686E+03</pdfrwt>
<pdfrwt beam="2">  1       -2 0.66726777E-02 0.34026686E+03</pdfrwt>
<totfact> 0.12375047E+03</totfact>
</mgrwt>
</event>
<event>
 6      1 +1.8175624e-03 1.92559000e+02 7.81860800e-03 1.15617300e-01
        2 -1    0    0  501    0 +0.0000000000e+00 +0.0000000000e+00 +4.6066221071e+02 4.6066221071e+02 2.5500000000e-03 0.0000e+00 1.0000e+00
       -2 -1    0    0    0  501 -0.0000000000e+00 -0.0000000000e+00 -2.0122645797e+01 2.0122645958e+01 2.5500000000e-03 0.0000e+00 -1.0000e+00
      -13  1    1    2    0    0 -2.9564708039e+01 +1.4724560547e+01 +9.0592249033e+01 9.6425366962e+01 1.0566000000e-01 0.0000e+00 -1.0000e+00
       13  1    1    2    0    0 +8.1705768682e+00 +4.2950171250e+01 +8.4573946896e+01 9.5206298081e+01 1.0566000000e-01 0.0000e+00 1.0000e+00
      -13  1    1    2    0    0 -2.8056127357e+01 -3.3665102925e+01 +1.9495226340e+02 1.9981712040e+02 1.0566000000e-01 0.0000e+00 1.0000e+00
       13  1    1    2    0    0 +4.9450258528e+01 -2.4009628872e+01 +7.0421105583e+01 8.9336071229e+01 1.0566000000e-01 0.0000e+00 -1.0000e+00
<mgrwt>
<rscale>  0 0.19255900E+03</rscale>
<asrwt>0</asrwt>
<pdfrwt beam="1">  1        2 0.11516556E+00 0.19255900E+03</pdfrwt>
<pdfrwt beam="2">  1       -2 0.50306612E-02 0.19255900E+03</pdfrwt>
<totfact> 0.73469008E+03</totfact>
</mgrwt>
</event>
<event>
 6      1 +1.8175624e-03 3.64603400e+02 7.81860800e-03 1.05677600e-01
        2 -1    0    0  501    0 +0.0000000000e+00 +0.0000000000e+00 +1.4782178133e+02 1.4782178135e+02 2.5500000000e-03 0.0000e+00 1.0000e+00
       -2 -1    0    0    0  501 -0.0000000000e+00 -0.0000000000e+00 -2.2482423443e+02 2.2482423445e+02 2.5500000000e-03 0.0000e+00 -1.0000e+00
      -13  1    1    2    0    0 +2.8367939021e+01 +1.6754908178e+01 +3.0104758582e-01 3.2947969680e+01 1.0566000000e-01 0.0000e+00 -1.0000e+00
       13  1    1    2    0    0 +1.1559400539e+02 -9.9791891452e+01 -2.3097206607e+00 1.5272767154e+02 1.0566000000e-01 0.0000e+00 1.0000e+00
      -13  1    1    2    0    0 -6.8875542866e+01 +1.6219076096e+01 -3.1023836649e+01 7.7261817471e+01 1.0566000000e-01 0.0000e+00 -1.0000e+00
       13  1    1    2    0    0 -7.5086401542e+01 +6.6817907178e+01 -4.3969943384e+01 1.0970855710e+02 1.0566000000e-01 0.0000e+00 1.0000e+00
<mgrwt>
<rscale>  0 0.36460345E+03</rscale>
<asrwt>0</asrwt>
<pdfrwt beam="1">  1        2 0.36955446E-01 0.36460345E+03</pdfrwt>
<pdfrwt beam="2">  1       -2 0.56206058E-01 0.36460345E+03</pdfrwt>
<totfact> 0.42337250E+02</totfact>
</mgrwt>
</event>
<event>
 6      1 +1.8175624e-03 2.80249100e+02 7.81860800e-03 1.09555300e-01
       -2 -1    0    0    0  501 -0.0000000000e+00 +0.0000000000e+00 +1.8586215588e+02 1.8586215590e+02 2.5500000000e-03 0.0000e+00 -1.0000e+00
        2 -1    0    0  501    0 +0.0000000000e+00 -0.0000000000e+00 -1.0564217582e+02 1.0564217585e+02 2.5500000000e-03 0.0000e+00 1.0000e+00
      -13  1    1    2    0    0 -2.0205675374e+01 -3.9790005177e+01 -1.6993855288e+01 4.7752655538e+01 1.0566000000e-01 0.0000e+00 -1.0000e+00
       13  1    1    2    0    0 -3.2595178731e+01 +4.3246871618e+00 +7.0370386627e+01 7.7673361416e+01 1.0566000000e-01 0.0000e+00 1.0000e+00
      -13  1    1    2    0    0 +3.1898803628e+01 -2.1452418663e+00 +8.6673669971e+01 9.2382205893e+01 1.0566000000e-01 0.0000e+00 -1.0000e+00
       13  1    1    2    0    0 +2.0902050478e+01 +3.7610559882e+01 -5.9830221249e+01 7.3696108904e+01 1.0566000000e-01 0.0000e+00 1.0000e+00
<mgrwt>
<rscale>  0 0.28024905E+03</rscale>
<asrwt>0</asrwt>
<pdfrwt beam="1">  1        2 0.26410544E-01 0.28024905E+03</pdfrwt>
<pdfrwt beam="2">  1       -2 0.46465538E-01 0.28024905E+03</pdfrwt>
<totfact> 0.90035318E+02</totfact>
</mgrwt>
</event>
<event>
 6      1 +1.8175624e-03 4.12221700e+02 7.81860800e-03 1.03962800e-01
        2 -1    0    0  501    0 +0.0000000000e+00 +0.0000000000e+00 +4.3800473102e+02 4.3800473103e+02 2.5500000000e-03 0.0000e+00 -1.0000e+00
       -2 -1    0    0    0  501 -0.0000000000e+00 -0.0000000000e+00 -9.6989089791e+01 9.6989089824e+01 2.5500000000e-03 0.0000e+00 1.0000e+00
      -13  1    1    2    0    0 +5.5142765035e+01 -3.2977222127e+00 +5.9749860469e+01 8.1373561417e+01 1.0566000000e-01 0.0000e+00 -1.0000e+00
       13  1    1    2    0    0 +3.3219925390e+00 +4.7494132614e+01 +2.3025144760e+02 2.3512224172e+02 1.0566000000e-01 0.0000e+00 1.0000e+00
      -13  1    1    2    0    0 -3.7754966021e-01 -7.9984235242e+01 -5.1663375707e+01 9.5219409705e+01 1.0566000000e-01 0.0000e+00 1.0000e+00
       13  1    1    2    0    0 -5.8087207914e+01 +3.5787824841e+01 +1.0267770887e+02 1.2327860801e+02 1.0566000000e-01 0.0000e+00 -1.0000e+00
<mgrwt>
<rscale>  0 0.41222169E+03</rscale>
<asrwt>0</asrwt>
<pdfrwt beam="1">  1        2 0.10950118E+00 0.41222169E+03</pdfrwt>
<pdfrwt beam="2">  1       -2 0.24247273E-01 0.41222169E+03</pdfrwt>
<totfact> 0.61609263E+02</totfact>
</mgrwt>
</event>
<event>
 6      1 +1.8175624e-03 4.90081200e+02 7.81860800e-03 1.01640100e-01
       -2 -1    0    0    0  501 -0.0000000000e+00 +0.0000000000e+00 +5.3667144044e+01 5.3667144105e+01 2.5500000000e-03 0.0000e+00 -1.0000e+00
        2 -1    0    0  501    0 +0.0000000000e+00 -0.0000000000e+00 -1.1188388404e+03 1.1188388404e+03 2.5500000000e-03 0.0000e+00 1.0000e+00
      -13  1    1    2    0    0 -4.5886192439e+01 +2.0105963065e+02 -3.9008319677e+02 4.4124305014e+02 1.0566000000e-01 0.0000e+00 -1.0000e+00
       13  1    1    2    0    0 +7.5948309852e+01 -8.2535882448e+01 -2.1677426586e+02 2.4407255307e+02 1.0566000000e-01 0.0000e+00 -1.0000e+00
      -13  1    1    2    0    0 -1.5121076629e+01 -2.6129101572e-01 -1.6367485866e+00 1.5212013062e+01 1.0566000000e-01 0.0000e+00 1.0000e+00
       13  1    1    2    0    0 -1.4941040784e+01 -1.1826245719e+02 -4.5667748516e+02 4.7197836825e+02 1.0566000000e-01 0.0000e+00 1.0000e+00
<mgrwt>
<rscale>  0 0.49008116E+03</rscale>
<asrwt>0</asrwt>
<pdfrwt beam="1">  1        2 0.27970963E+00 0.49008116E+03</pdfrwt>
<pdfrwt beam="2">  1       -2 0.13416790E-01 0.49008116E+03</pdfrwt>
<totfact> 0.37139410E+02</totfact>
</mgrwt>
</event>
<event>
 7      1 +1.8175624e-03 9.20814400e+01 7.81860800e-03 1.29788800e-01
        1 -1    0    0  501    0 +0.0000000000e+00 +0.0000000000e+00 +2.3157896493e+02 2.3157896499e+02 5.0400000000e-03 0.0000e+00 -1.0000e+00
       -1 -1    0    0    0  501 -0.0000000000e+00 -0.0000000000e+00 -9.1534562651e+00 9.1534576526e+00 5.0400000000e-03 0.0000e+00 1.0000e+00
       23  2    1    2    0    0 +0.0000000000e+00 +0.0000000000e+00 +2.2242550867e+02 2.4073242264e+02 9.2081444408e+01 0.0000e+00 0.0000e+00
      -13  1    3    3    0    0 -1.8627351977e+01 -1.5354290815e+01 +7.4467439982e+01 7.8282458249e+01 1.0566000000e-01 0.0000e+00 1.0000e+00
       13  1    3    3    0    0 -2.7537971415e+00 +3.5667004819e+01 +8.4065150798e+01 9.1360162949e+01 1.0566000000e-01 0.0000e+00 -1.0000e+00
      -13  1    3    3    0    0 +5.3692169228e+00 -1.1235796649e+01 +2.1005616831e+01 2.4419637983e+01 1.0566000000e-01 0.0000e+00 -1.0000e+00
       13  1    3    3    0    0 +1.6011932196e+01 -9.0769173552e+00 +4.2887301059e+01 4.6670163461e+01 1.0566000000e-01 0.0000e+00 1.0000e+00
<mgrwt>
<rscale>  0 0.92081444E+02</rscale>
<asrwt>0</asrwt>
<pdfrwt beam="1">  1        1 0.57894741E-01 0.92081444E+02</pdfrwt>
<pdfrwt beam="2">  1       -1 0.22883642E-02 0.92081444E+02</pdfrwt>
<totfact> 0.32794789E+04</totfact>
</mgrwt>
</event>
<event>
 6      1 +1.8175624e-03 4.05696300e+02 7.81860800e-03 1.04182500e-01
        1 -1    0    0  501    0 +0.0000000000e+00 +0.0000000000e+00 +2.1080090842e+02 2.1080090848e+02 5.0400000000e-03 0.0000e+00 1.0000e+00
       -1 -1    0    0    0  501 -0.0000000000e+00 -0.0000000000e+00 -1.9519543494e+02 1.9519543500e+02 5.0400000000e-03 0.0000e+00 -1.0000e+00
      -13  1    1    2    0    0 -9.2845633563e+01 +1.2446300459e+02 -2.7213189057e+01 1.5764491747e+02 1.0566000000e-01 0.0000e+00 -1.0000e+00
       13  1    1    2    0    0 +7.8035105036e+00 -1.1672030930e+01 -4.9762163985e+01 5.1705079158e+01 1.0566000000e-01 0.0000e+00 1.0000e+00
      -13  1    1    2    0    0 +5.5256560971e+01 -1.2611784871e+02 +8.8691921302e+01 1.6378420974e+02 1.0566000000e-01 0.0000e+00 1.0000e+00
       13  1    1    2    0    0 +2.9785562089e+01 +1.3326875049e+01 +3.8889052259e+00 3.2862137109e+01 1.0566000000e-01 0.0000e+00 -1.0000e+00
<mgrwt>
<rscale>  0 0.40569632E+03</rscale>
<asrwt>0</asrwt>
<pdfrwt beam="1">  1        1 0.52700227E-01 0.40569632E+03</pdfrwt>
<pdfrwt beam="2">  1       -1 0.48798859E-01 0.40569632E+03</pdfrwt>
<totfact> 0.31755311E+02</totfact>
</mgrwt>
</event>
<event>
 6      1 +1.8175624e-03 5.46675800e+02 7.81860800e-03 1.00226600e-01
        2 -1    0    0  501    0 +0.0000000000e+00 +0.0000000000e+00 +1.1037808219e+03 1.1037808219e+03 2.5500000000e-03 0.0000e+00 1.0000e+00
       -2 -1    0    0    0  501 -0.0000000000e+00 -0.0000000000e+00 -6.7688803699e+01 6.7688803747e+01 2.5500000000e-03 0.0000e+00 -1.0000e+00
      -13  1    1    2    0    0 -1.8750921712e+01 -3.2625725047e+01 +2.1753629151e+01 4.3465693888e+01 1.0566000000e-01 0.0000e+00 -1.0000e+00
       13  1    1    2    0    0 +2.5317120837e+01 +2.4949560275e+02 +4.6209944121e+02 5.2576127390e+02 1.0566000000e-01 0.0000e+00 1.0000e+00
      -13  1    1    2    0    0 -2.5269339726e+01 -1.6041164217e+02 +2.8089669302e+02 3.2445862261e+02 1.0566000000e-01 0.0000e+00 -1.0000e+00
       13  1    1    2    0    0 +1.8703140601e+01 -5.6458235535e+01 +2.7134225486e+02 2.7778403530e+02 1.0566000000e-01 0.0000e+00 1.0000e+00
<mgrwt>
<rscale>  0 0.54667578E+03</rscale>
<asrwt>0</asrwt>
<pdfrwt beam="1">  1        2 0.27594520E+00 0.54667578E+03</pdfrwt>
<pdfrwt beam="2">  1       -2 0.16922201E-01 0.54667578E+03</pdfrwt>
<totfact> 0.25757097E+02</totfact>
</mgrwt>
</event>
<event>
 6      1 +1.8175624e-03 7.71149200e+02 7.81860800e-03 9.60274300e-02
        1 -1    0    0  501    0 +0.0000000000e+00 +0.0000000000e+00 +5.0047473240e+02 5.0047473243e+02 5.0400000000e-03 0.0000e+00 -1.0000e+00
       -1 -1    0    0    0  501 -0.0000000000e+00 -0.0000000000e+00 -2.9705353912e+02 2.9705353916e+02 5.0400000000e-03 0.0000e+00 1.0000e+00
      -13  1    1    2    0    0 -1.4562629681e+01 -8.1266733542e+01 -1.7687769793e+02 1.9519754955e+02 1.0566000000e-01 0.0000e+00 1.0000e+00
       13  1    1    2    0    0 +8.0404896004e+01 +1.6744115326e+02 +4.1232104680e+02 4.5222797780e+02 1.0566000000e-01 0.0000e+00 -1.0000e+00
      -13  1    1    2    0    0 -8.4305981199e+01 -9.3570413443e+01 -2.2090148595e+01 1.2787066343e+02 1.0566000000e-01 0.0000e+00 1.0000e+00
       13  1    1    2    0    0 +1.8463714876e+01 +7.3959937194e+00 -9.9320069922e+00 2.2232080808e+01 1.0566000000e-01 0.0000e+00 -1.0000e+00
<mgrwt>
<rscale>  0 0.77114925E+03</rscale>
<asrwt>0</asrwt>
<pdfrwt beam="1">  1        1 0.12511868E+00 0.77114925E+03</pdfrwt>
<pdfrwt beam="2">  1       -1 0.74263385E-01 0.77114925E+03</pdfrwt>
<totfact> 0.40161782E+01</totfact>
</mgrwt>
</event>
<event>
 6      1 +1.8175624e-03 7.62685700e+02 7.81860800e-03 9.61565600e-02
       -1 -1    0    0    0  501 -0.0000000000e+00 +0.0000000000e+00 +3.1872396199e+02 3.1872396203e+02 5.0400000000e-03 0.0000e+00 -1.0000e+00
        1 -1    0    0  501    0 +0.0000000000e+00 -0.0000000000e+00 -4.5626431618e+02 4.5626431621e+02 5.0400000000e-03 0.0000e+00 1.0000e+00
      -13  1    1    2    0    0 +1.7102684325e+01 +2.1144750161e+01 -9.2257303931e+00 2.8718069849e+01 1.0566000000e-01 0.0000e+00 1.0000e+00
       13  1    1    2    0    0 -7.4039567517e+01 -1.6076186101e+01 +9.4698758414e+01 1.2127723334e+02 1.0566000000e-01 0.0000e+00 -1.0000e+00
      -13  1    1    2    0    0 -1.6182482034e+02 +2.1371604929e+02 -5.7717593460e+01 2.7421370127e+02 1.0566000000e-01 0.0000e+00 -1.0000e+00
       13  1    1    2    0    0 +2.1876170353e+02 -2.1878461335e+02 -1.6529578875e+02 3.5077927378e+02 1.0566000000e-01 0.0000e+00 1.0000e+00
<mgrwt>
<rscale>  0 0.76268570E+03</rscale>
<asrwt>0</asrwt>
<pdfrwt beam="1">  1        1 0.11406608E+00 0.76268570E+03</pdfrwt>
<pdfrwt beam="2">  1       -1 0.79680991E-01 0.76268570E+03</pdfrwt>
<totfact> 0.40110842E+01</totfact>
</mgrwt>
</event>
<event>
 6      1 +1.8175624e-03 4.94138200e+02 7.81860800e-03 1.01532000e-01
        2 -1    0    0  501    0 +0.0000000000e+00 +0.0000000000e+00 +2.3315257170e+02 2.3315257172e+02 2.5500000000e-03 0.0000e+00 1.0000e+00
       -2 -1    0    0    0  501 -0.0000000000e+00 -0.0000000000e+00 -2.6181632641e+02 2.6181632643e+02 2.5500000000e-03 0.0000e+00 -1.0000e+00
      -13  1    1    2    0    0 -2.2215859179e+01 +5.2564002918e+01 +2.5264651620e+01 6.2408593858e+01 1.0566000000e-01 0.0000e+00 -1.0000e+00
       13  1    1    2    0    0 -1.8064477080e+01 +1.1914984031e+01 -1.9554643929e+01 2.9166546587e+01 1.0566000000e-01 0.0000e+00 1.0000e+00
      -13  1    1    2    0    0 +1.6289048073e+02 -1.3624083099e+02 -1.1349299074e+02 2.4078110983e+02 1.0566000000e-01 0.0000e+00 -1.0000e+00
       13  1    1    2    0    0 -1.2261014448e+02 +7.1761844036e+01 +7.9119228341e+01 1.6261264786e+02 1.0566000000e-01 0.0000e+00 1.0000e+00
<mgrwt>
<rscale>  0 0.49413824E+03</rscale>
<asrwt>0</asrwt>
<pdfrwt beam="1">  1        2 0.58288143E-01 0.49413824E+03</pdfrwt>
<pdfrwt beam="2">  1       -2 0.65454082E-01 0.49413824E+03</pdfrwt>
<totfact> 0.18555701E+02</totfact>
</mgrwt>
</event>
<event>
 6      1 +1.8175624e-03 5.40913800e+02 7.81860800e-03 1.00361900e-01
       -1 -1    0    0    0  501 -0.0000000000e+00 +0.0000000000e+00 +1.0387973995e+02 1.0387974008e+02 5.0400000000e-03 0.0000e+00 1.0000e+00
        1 -1    0    0  501    0 +0.0000000000e+00 -0.0000000000e+00 -7.0415028052e+02 7.0415028054e+02 5.0400000000e-03 0.0000e+00 -1.0000e+00
      -13  1    1    2    0    0 +5.1337396542e+01 +2.2795222107e+02 -2.7590627910e+02 3.6155501572e+02 1.0566000000e-01 0.0000e+00 1.0000e+00
       13  1    1    2    0    0 -3.8368429604e+00 -1.9142685018e+02 -2.3098070183e+02 3.0001842629e+02 1.0566000000e-01 0.0000e+00 -1.0000e+00
      -13  1    1    2    0    0 -5.0930340298e+01 -4.9956018183e+01 -2.3350862146e+01 7.5065153318e+01 1.0566000000e-01 0.0000e+00 1.0000e+00
       13  1    1    2    0    0 +3.4297867165e+00 +1.3430647285e+01 -7.0032697493e+01 7.1391425295e+01 1.0566000000e-01 0.0000e+00 -1.0000e+00
<mgrwt>
<rscale>  0 0.54091385E+03</rscale>
<asrwt>0</asrwt>
<pdfrwt beam="1">  1        1 0.17603756E+00 0.54091385E+03</pdfrwt>
<pdfrwt beam="2">  1       -1 0.25969937E-01 0.54091385E+03</pdfrwt>
<totfact> 0.15939896E+02</totfact>
</mgrwt>
</event>
<event>
 6      1 +1.8175624e-03 2.49473900e+02 7.81860800e-03 1.11363800e-01
       -1 -1    0    0    0  501 -0.0000000000e+00 +0.0000000000e+00 +1.2851938275e+02 1.2851938285e+02 5.0400000000e-03 0.0000e+00 1.0000e+00
        1 -1    0    0  501    0 +0.0000000000e+00 -0.0000000000e+00 -1.2106579166e+02 1.2106579177e+02 5.0400000000e-03 0.0000e+00 -1.0000e+00
      -13  1    1    2    0    0 +4.5499416436e+01 -4.8359036442e+01 +1.3002439321e+01 6.7659943053e+01 1.0566000000e-01 0.0000e+00 -1.0000e+00
       13  1    1    2    0    0 -3.0412696114e+01 +5.0443819160e+01 -4.4243127066e+01 7.3668014993e+01 1.0566000000e-01 0.0000e+00 -1.0000e+00
      -13  1    1    2    0    0 -1.2902736010e+01 -4.3252878535e+01 -8.1382217271e+00 4.5864298916e+01 1.0566000000e-01 0.0000e+00 1.0000e+00
       13  1    1    2    0    0 -2.1839843116e+00 +4.1168095817e+01 +4.6832500559e+01 6.2392917654e+01 1.0566000000e-01 0.0000e+00 1.0000e+00
<mgrwt>
<rscale>  0 0.24947385E+03</rscale>
<asrwt>0</asrwt>
<pdfrwt beam="1">  1        1 0.30266448E-01 0.24947385E+03</pdfrwt>
<pdfrwt beam="2">  1       -1 0.32129846E-01 0.24947385E+03</pdfrwt>
<totfact> 0.13568190E+03</totfact>
</mgrwt>
</event>
<event>
 6      1 +1.8175624e-03 2.55843400e+02 7.81860800e-03 1.10966700e-01
       -2 -1    0    0    0  501 -0.0000000000e+00 +0.0000000000e+00 +9.0233534830e+01 9.0233534866e+01 2.5500000000e-03 0.0000e+00 1.0000e+00
        2 -1    0    0  501    0 +0.0000000000e+00 -0.0000000000e+00 -1.8135124161e+02 1.8135124163e+02 2.5500000000e-03 0.0000e+00 -1.0000e+00
      -13  1    1    2    0    0 +5.9854595628e+01 +6.7270515803e+01 -2.7225394735e+01 9.4069804915e+01 1.0566000000e-01 0.0000e+00 -1.0000e+00
       13  1    1    2    0    0 -7.0007335275e+01 -5.1825943123e+01 -5.7354180008e+01 1.0429030876e+02 1.0566000000e-01 0.0000e+00 -1.0000e+00
      -13  1    1    2    0    0 +3.2729800328e-01 +1.5365813931e+01 +2.4160591012e+01 2.8634955628e+01 1.0566000000e-01 0.0000e+00 1.0000e+00
       13  1    1    2    0    0 +9.8254416436e+00 -3.0810386611e+01 -3.0698723054e+01 4.4589707196e+01 1.0566000000e-01 0.0000e+00 1.0000e+00
<mgrwt>
<rscale>  0 0.25584342E+03</rscale>
<asrwt>0</asrwt>
<pdfrwt beam="1">  1        2 0.45337810E-01 0.25584342E+03</pdfrwt>
<pdfrwt beam="2">  1       -2 0.22558384E-01 0.25584342E+03</pdfrwt>
<totfact> 0.18935689E+03</totfact>
</mgrwt>
</event>
<event>
 6      1 +1.8175624e-03 1.01093900e+03 7.81860800e-03 9.29662800e-02
       -2 -1    0    0    0  501 -0.0000000000e+00 +0.0000000000e+00 +2.0043102282e+02 2.0043102284e+02 2.5500000000e-03 0.0000e+00 1.0000e+00
        2 -1    0    0  501    0 +0.0000000000e+00 -0.0000000000e+00 -1.2747491990e+03 1.2747491990e+03 2.5500000000e-03 0.0000e+00 -1.0000e+00
      -13  1    1    2    0    0 +1.0717096708e+02 -3.9138008639e+01 -2.0542442822e+02 2.3498214140e+02 1.0566000000e-01 0.0000e+00 -1.0000e+00
       13  1    1    2    0    0 +1.2967340192e+02 +8.2421552676e+01 -2.1739460158e+02 2.6621218505e+02 1.0566000000e-01 0.0000e+00 1.0000e+00
      -13  1    1    2    0    0 -1.8349657843e+02 -3.3373671409e+02 -1.8881496571e+02 4.2509092094e+02 1.0566000000e-01 0.0000e+00 1.0000e+00
       13  1    1    2    0    0 -5.3347790568e+01 +2.9045317006e+02 -4.6268418068e+02 5.4889497445e+02 1.0566000000e-01 0.0000e+00 -1.0000e+00
<mgrwt>
<rscale>  0 0.10109387E+04</rscale>
<asrwt>0</asrwt>
<pdfrwt beam="1">  1        2 0.31868728E+00 0.10109387E+04</pdfrwt>
<pdfrwt beam="2">  1       -2 0.50107759E-01 0.10109387E+04</pdfrwt>
<totfact> 0.23055286E+01</totfact>
</mgrwt>
</event>
<event>
 7      1 +1.8175624e-03 9.04827000e+01 7.81860800e-03 1.30168700e-01
        2 -1    0    0  501    0 +0.0000000000e+00 +0.0000000000e+00 +2.0953276431e+01 2.0953276586e+01 2.5500000000e-03 0.0000e+00 -1.0000e+00
       -2 -1    0    0    0  501 -0.0000000000e+00 -0.0000000000e+00 -9.7683036918e+01 9.7683036952e+01 2.5500000000e-03 0.0000e+00 1.0000e+00
       23  2    1    2    0    0 -4.4408920985e-16 -3.5527136788e-15 -7.6729760487e+01 1.1863631354e+02 9.0482698597e+01 0.0000e+00 0.0000e+00
      -13  1    3    3    0    0 +1.5019528281e+00 +2.0922119441e+01 -4.1870905757e+01 4.6831344815e+01 1.0566000000e-01 0.0000e+00 1.0000e+00
       13  1    3    3    0    0 +1.1739001384e+01 -5.3850176433e+00 -1.2913339181e+01 1.8263845744e+01 1.0566000000e-01 0.0000e+00 -1.0000e+00
      -13  1    3    3    0    0 +1.3667517380e+01 +5.1992962578e+00 -4.2040680580e+00 1.5215750562e+01 1.0566000000e-01 0.0000e+00 1.0000e+00
       13  1    3    3    0    0 -2.6908471592e+01 -2.0736398055e+01 -1.7741447491e+01 3.8325372416e+01 1.0566000000e-01 0.0000e+00 -1.0000e+00
<mgrwt>
<rscale>  0 0.90482699E+02</rscale>
<asrwt>0</asrwt>
<pdfrwt beam="1">  1        2 0.52383194E-02 0.90482699E+02</pdfrwt>
<pdfrwt beam="2">  1       -2 0.24420758E-01 0.90482699E+02</pdfrwt>
<totfact> 0.19338479E+04</totfact>
</mgrwt>
</event>
<event>
 6      1 +1.8175624e-03 3.10830100e+02 7.81860800e-03 1.07994900e-01
       -4 -1    0    0    0  501 -0.0000000000e+00 +0.0000000000e+00 +4.8633057818e+02 4.8633223641e+02 1.2700000000e+00 0.0000e+00 -1.0000e+00
        4 -1    0    0  501    0 +0.0000000000e+00 -0.0000000000e+00 -4.9655601821e+01 4.9671840032e+01 1.2700000000e+00 0.0000e+00 1.0000e+00
      -13  1    1    2    0    0 -1.2810321972e+01 -2.9785960799e+01 +4.1510753782e+01 5.2673158756e+01 1.0566000000e-01 0.0000e+00 -1.0000e+00
       13  1    1    2    0    0 +1.4335287323e+01 -1.1263038524e+01 -1.6577413422e+01 2.4640988195e+01 1.0566000000e-01 0.0000e+00 1.0000e+00
      -13  1    1    2    0    0 +5.2456296599e+01 -3.3517307298e+01 +3.2924576729e+02 3.3507888531e+02 1.0566000000e-01 0.0000e+00 -1.0000e+00
       13  1    1    2    0    0 -5.3981261950e+01 +7.4566306621e+01 +8.2495868713e+01 1.2361104418e+02 1.0566000000e-01 0.0000e+00 1.0000e+00
<mgrwt>
<rscale>  0 0.31083007E+03</rscale>
<asrwt>0</asrwt>
<pdfrwt beam="1">  1        4 0.12416138E-01 0.31083007E+03</pdfrwt>
<pdfrwt beam="2">  1       -4 0.12158488E+00 0.31083007E+03</pdfrwt>
<totfact> 0.52369546E+01</totfact>
</mgrwt>
</event>
<event>
 6      1 +1.8175624e-03 2.35694700e+02 7.81860800e-03 1.12269500e-01
        2 -1    0    0  501    0 +0.0000000000e+00 +0.0000000000e+00 +4.3599509960e+02 4.3599509960e+02 2.5500000000e-03 0.0000e+00 -1.0000e+00
       -2 -1    0    0    0  501 -0.0000000000e+00 -0.0000000000e+00 -3.1853555820e+01 3.1853555923e+01 2.5500000000e-03 0.0000e+00 1.0000e+00
      -13  1    1    2    0    0 -2.8506938171e+01 +1.1602859600e+01 +4.6942959379e+01 5.6133096067e+01 1.0566000000e-01 0.0000e+00 1.0000e+00
       13  1    1    2    0    0 -3.2004234674e+01 -3.0969694204e+01 +2.5523653692e+02 2.5909282881e+02 1.0566000000e-01 0.0000e+00 -1.0000e+00
      -13  1    1    2    0    0 +1.1497517221e+00 -3.1325035843e+01 +1.2125318937e+01 3.3609735539e+01 1.0566000000e-01 0.0000e+00 -1.0000e+00
       13  1    1    2    0    0 +5.9361421123e+01 +5.0691870447e+01 +8.9836728538e+01 1.1901299511e+02 1.0566000000e-01 0.0000e+00 1.0000e+00
<mgrwt>
<rscale>  0 0.23569467E+03</rscale>
<asrwt>0</asrwt>
<pdfrwt beam="1">  1        2 0.10899878E+00 0.23569467E+03</pdfrwt>
<pdfrwt beam="2">  1       -2 0.79633889E-02 0.23569467E+03</pdfrwt>
<totfact> 0.39072549E+03</totfact>
</mgrwt>
</event>
<event>
 6      1 +1.8175624e-03 1.07847700e+03 7.81860800e-03 9.22642700e-02
       -2 -1    0    0    0  501 -0.0000000000e+00 +0.0000000000e+00 +1.7357278382e+02 1.7357278384e+02 2.5500000000e-03 0.0000e+00 1.0000e+00
        2 -1    0    0  501    0 +0.0000000000e+00 -0.0000000000e+00 -1.6752521436e+03 1.6752521436e+03 2.5500000000e-03 0.0000e+00 -1.0000e+00
      -13  1    1    2    0    0 -5.2600380589e+01 +4.5876207479e+02 -3.0001513334e+02 5.5067098407e+02 1.0566000000e-01 0.0000e+00 1.0000e+00
       13  1    1    2    0    0 +3.0668447593e+01 -2.8513430515e+02 -6.4750545032e+02 7.0817049148e+02 1.0566000000e-01 0.0000e+00 -1.0000e+00
      -13  1    1    2    0    0 +1.5576544509e+01 -7.0565651358e+01 -9.5023039723e+01 1.1937976852e+02 1.0566000000e-01 0.0000e+00 1.0000e+00
       13  1    1    2    0    0 +6.3553884866e+00 -1.0306211827e+02 -4.5913573643e+02 4.7060368339e+02 1.0566000000e-01 0.0000e+00 -1.0000e+00
<mgrwt>
<rscale>  0 0.10784770E+04</rscale>
<asrwt>0</asrwt>
<pdfrwt beam="1">  1        2 0.41881299E+00 0.10784770E+04</pdfrwt>
<pdfrwt beam="2">  1       -2 0.43393201E-01 0.10784770E+04</pdfrwt>
<totfact> 0.13063674E+01</totfact>
</mgrwt>
</event>
<event>
 7      1 +1.8175624e-03 9.09799000e+01 7.81860800e-03 1.30049600e-01
        1 -1    0    0  501    0 +0.0000000000e+00 +0.0000000000e+00 +6.8645101417e+01 6.8645101602e+01 5.0400000000e-03 0.0000e+00 -1.0000e+00
       -1 -1    0    0    0  501 -0.0000000000e+00 -0.0000000000e+00 -3.0145419694e+01 3.0145420115e+01 5.0400000000e-03 0.0000e+00 1.0000e+00
       23  2    1    2    0    0 +0.0000000000e+00 -3.5527136788e-15 +3.8499681724e+01 9.8790521717e+01 9.0979897166e+01 0.0000e+00 0.0000e+00
      -13  1    3    3    0    0 -1.5590356629e+01 +1.9936651933e+01 +4.0866697171e+00 2.5636718657e+01 1.0566000000e-01 0.0000e+00 1.0000e+00
       13  1    3    3    0    0 +2.0596625426e+01 +1.1658990222e+01 +2.0305594804e+01 3.1184633657e+01 1.0566000000e-01 0.0000e+00 -1.0000e+00
      -13  1    3    3    0    0 +8.0043352438e+00 -1.9299398979e+01 +1.1584071863e+01 2.3890124919e+01 1.0566000000e-01 0.0000e+00 1.0000e+00
       13  1    3    3    0    0 -1.3010604041e+01 -1.2296243175e+01 +2.5233453395e+00 1.8079044484e+01 1.0566000000e-01 0.0000e+00 -1.0000e+00
<mgrwt>
<rscale>  0 0.90979897E+02</rscale>
<asrwt>0</asrwt>
<pdfrwt beam="1">  1        1 0.17161275E-01 0.90979897E+02</pdfrwt>
<pdfrwt beam="2">  1       -1 0.75363551E-02 0.90979897E+02</pdfrwt>
<totfact> 0.25909383E+04</totfact>
</mgrwt>
</event>
<event>
 6      1 +1.8175624e-03 3.87307800e+02 7.81860800e-03 1.04826500e-01
        2 -1    0    0  501    0 +0.0000000000e+00 +0.0000000000e+00 +2.5114582048e+02 2.5114582049e+02 2.5500000000e-03 0.0000e+00 1.0000e+00
       -2 -1    0    0    0  501 -0.0000000000e+00 -0.0000000000e+00 -1.4932290998e+02 1.4932291000e+02 2.5500000000e-03 0.0000e+00 -1.0000e+00
      -13  1    1    2    0    0 +1.2719116824e+01 -1.0450951076e+00 -8.4444954701e+00 1.5303229213e+01 1.0566000000e-01 0.0000e+00 -1.0000e+00
       13  1    1    2    0    0 +8.2683653691e+00 -1.2326791569e+02 -1.1270571119e+01 1.2405797775e+02 1.0566000000e-01 0.0000e+00 -1.0000e+00
      -13  1    1    2    0    0 +1.5055920160e+01 +2.4225272719e+01 -5.0986304686e+01 5.8422247472e+01 1.0566000000e-01 0.0000e+00 1.0000e+00
       13  1    1    2    0    0 -3.6043402353e+01 +1.0008773808e+02 +1.7252428177e+02 2.0268527606e+02 1.0566000000e-01 0.0000e+00 1.0000e+00
<mgrwt>
<rscale>  0 0.38730776E+03</rscale>
<asrwt>0</asrwt>
<pdfrwt beam="1">  1        2 0.62786455E-01 0.38730776E+03</pdfrwt>
<pdfrwt beam="2">  1       -2 0.37330728E-01 0.38730776E+03</pdfrwt>
<totfact> 0.53232071E+02</totfact>
</mgrwt>
</event>
<event>
 6      1 +1.8175624e-03 2.59789000e+02 7.81860800e-03 1.10727000e-01
       -2 -1    0    0    0  501 -0.0000000000e+00 +0.0000000000e+00 +4.4217315834e+01 4.4217315907e+01 2.5500000000e-03 0.0000e+00 1.0000e+00
        2 -1    0    0  501    0 +0.0000000000e+00 -0.0000000000e+00 -3.8158300325e+02 3.8158300326e+02 2.5500000000e-03 0.0000e+00 -1.0000e+00
      -13  1    1    2    0    0 +1.1079902348e+01 -3.7627778151e+01 +1.9337648705e+01 4.3732936628e+01 1.0566000000e-01 0.0000e+00 1.0000e+00
       13  1    1    2    0    0 -1.7581028935e+01 -1.6539662897e+01 -4.9308760270e+01 5.4900073138e+01 1.0566000000e-01 0.0000e+00 -1.0000e+00
      -13  1    1    2    0    0 +4.0635486941e+01 +2.1981806225e+01 -6.1957095493e+01 7.7286062455e+01 1.0566000000e-01 0.0000e+00 1.0000e+00
       13  1    1    2    0    0 -3.4134360354e+01 +3.2185634823e+01 -2.4543748036e+02 2.4988124694e+02 1.0566000000e-01 0.0000e+00 -1.0000e+00
<mgrwt>
<rscale>  0 0.25978896E+03</rscale>
<asrwt>0</asrwt>
<pdfrwt beam="1">  1        2 0.95395741E-01 0.25978896E+03</pdfrwt>
<pdfrwt beam="2">  1       -2 0.11054330E-01 0.25978896E+03</pdfrwt>
<totfact> 0.27313785E+03</totfact>
</mgrwt>
</event>
<event>
 6      1 +1.8175624e-03 1.79915100e+02 7.81860800e-03 1.16788500e-01
       -2 -1    0    0    0  501 -0.0000000000e+00 +0.0000000000e+00 +3.2399342817e+01 3.2399342917e+01 2.5500000000e-03 0.0000e+00 1.0000e+00
        2 -1    0    0  501    0 +0.0000000000e+00 -0.0000000000e+00 -2.4976939461e+02 2.4976939462e+02 2.5500000000e-03 0.0000e+00 -1.0000e+00
      -13  1    1    2    0    0 +1.4563166717e+01 -2.4079142557e+01 -6.7730274328e+01 7.3343657911e+01 1.0566000000e-01 0.0000e+00 1.0000e+00
       13  1    1    2    0    0 -4.4075148883e+01 +4.4486339426e+01 -4.4786491918e+01 7.6990221243e+01 1.0566000000e-01 0.0000e+00 1.0000e+00
      -13  1    1    2    0    0 +5.4700300373e+00 -4.4882219038e+01 -5.3093439603e+01 6.9737072690e+01 1.0566000000e-01 0.0000e+00 -1.0000e+00
       13  1    1    2    0    0 +2.4041952129e+01 +2.4475022169e+01 -5.1759845940e+01 6.2097785694e+01 1.0566000000e-01 0.0000e+00 -1.0000e+00
<mgrwt>
<rscale>  0 0.17991514E+03</rscale>
<asrwt>0</asrwt>
<pdfrwt beam="1">  1        2 0.62442343E-01 0.17991514E+03</pdfrwt>
<pdfrwt beam="2">  1       -2 0.80998364E-02 0.17991514E+03</pdfrwt>
<totfact> 0.70796400E+03</totfact>
</mgrwt>
</event>
<event>
 6      1 +1.8175624e-03 3.00755000e+02 7.81860800e-03 1.08486400e-01
       -2 -1    0    0    0  501 -0.0000000000e+00 +0.0000000000e+00 +1.0982191210e+02 1.0982191213e+02 2.5500000000e-03 0.0000e+00 1.0000e+00
        2 -1    0    0  501    0 +0.0000000000e+00 -0.0000000000e+00 -2.0590970766e+02 2.0590970768e+02 2.5500000000e-03 0.0000e+00 -1.0000e+00
      -13  1    1    2    0    0 -5.6791030834e+01 -4.2419758399e+01 -9.5783827074e+01 1.1916043714e+02 1.0566000000e-01 0.0000e+00 1.0000e+00
       13  1    1    2    0    0 +2.5552451713e+01 -3.9362230584e+01 +1.5345119960e+01 4.9374050428e+01 1.0566000000e-01 0.0000e+00 -1.0000e+00
      -13  1    1    2    0    0 +2.7284492674e+01 +3.1162829742e+01 +4.9536252715e+01 6.4571022875e+01 1.0566000000e-01 0.0000e+00 1.0000e+00
       13  1    1    2    0    0 +3.9540864472e+00 +5.0619159241e+01 -6.5185341165e+01 8.2626109364e+01 1.0566000000e-01 0.0000e+00 -1.0000e+00
<mgrwt>
<rscale>  0 0.30075504E+03</rscale>
<asrwt>0</asrwt>
<pdfrwt beam="1">  1        2 0.51477426E-01 0.30075504E+03</pdfrwt>
<pdfrwt beam="2">  1       -2 0.27455478E-01 0.30075504E+03</pdfrwt>
<totfact> 0.11685241E+03</totfact>
</mgrwt>
</event>
<event>
 6      1 +1.8175624e-03 2.81085000e+02 7.81860800e-03 1.09509800e-01
       -2 -1    0    0    0  501 -0.0000000000e+00 +0.0000000000e+00 +1.3888873629e+02 1.3888873631e+02 2.5500000000e-03 0.0000e+00 -1.0000e+00
        2 -1    0    0  501    0 +0.0000000000e+00 -0.0000000000e+00 -1.4221590932e+02 1.4221590934e+02 2.5500000000e-03 0.0000e+00 1.0000e+00
      -13  1    1    2    0    0 -1.1157703514e+01 +1.0912948176e+01 -2.8440140764e+01 3.2441324824e+01 1.0566000000e-01 0.0000e+00 1.0000e+00
       13  1    1    2    0    0 +9.4843965059e+01 -6.3011246504e+01 +6.0911782028e-01 1.1386912260e+02 1.0566000000e-01 0.0000e+00 -1.0000e+00
      -13  1    1    2    0    0 -5.6114121329e+01 -1.2456465034e+01 -6.9008345259e+00 5.7892925430e+01 1.0566000000e-01 0.0000e+00 -1.0000e+00
       13  1    1    2    0    0 -2.7572140216e+01 +6.4554763362e+01 +3.1404684438e+01 7.6901272795e+01 1.0566000000e-01 0.0000e+00 1.0000e+00
<mgrwt>
<rscale>  0 0.28108495E+03</rscale>
<asrwt>0</asrwt>
<pdfrwt beam="1">  1        2 0.35553977E-01 0.28108495E+03</pdfrwt>
<pdfrwt beam="2">  1       -2 0.34722184E-01 0.28108495E+03</pdfrwt>
<totfact> 0.11346442E+03</totfact>
</mgrwt>
</event>
<event>
 6      1 +1.8175624e-03 4.98048200e+02 7.81860800e-03 1.01429000e-01
        3 -1    0    0  501    0 +0.0000000000e+00 +0.0000000000e+00 +4.5116363430e+02 4.5116364560e+02 1.0100000000e-01 0.0000e+00 1.0000e+00
       -3 -1    0    0    0  501 -0.0000000000e+00 -0.0000000000e+00 -1.3745118546e+02 1.3745122256e+02 1.0100000000e-01 0.0000e+00 -1.0000e+00
      -13  1    1    2    0    0 -1.4940878719e+01 -1.6589407828e+02 +1.6093212716e+01 1.6734120152e+02 1.0566000000e-01 0.0000e+00 -1.0000e+00
       13  1    1    2    0    0 +3.0985077502e+01 +3.4225036843e+01 -1.8976403560e+01 4.9915360669e+01 1.0566000000e-01 0.0000e+00 -1.0000e+00
      -13  1    1    2    0    0 +4.5496704033e+01 -1.7551702145e-01 +4.9709762433e+01 6.7387332112e+01 1.0566000000e-01 0.0000e+00 1.0000e+00
       13  1    1    2    0    0 -6.1540902815e+01 +1.3184455846e+02 +2.6688587725e+02 3.0397097387e+02 1.0566000000e-01 0.0000e+00 1.0000e+00
<mgrwt>
<rscale>  0 0.49804815E+03</rscale>
<asrwt>0</asrwt>
<pdfrwt beam="1">  1        3 0.11279091E+00 0.49804815E+03</pdfrwt>
<pdfrwt beam="2">  1       -3 0.34362803E-01 0.49804815E+03</pdfrwt>
<totfact> 0.14377407E+01</totfact>
</mgrwt>
</event>
<event>
 6      1 +1.8175624e-03 4.14543800e+02 7.81860800e-03 1.03885700e-01
       -2 -1    0    0    0  501 -0.0000000000e+00 +0.0000000000e+00 +1.4568486612e+02 1.4568486614e+02 2.5500000000e-03 0.0000e+00 1.0000e+00
        2 -1    0    0  501    0 +0.0000000000e+00 -0.0000000000e+00 -2.9489436222e+02 2.9489436223e+02 2.5500000000e-03 0.0000e+00 -1.0000e+00
      -13  1    1    2    0    0 +2.3732128782e+01 +1.6951180253e+01 +3.6792931182e+01 4.6949839164e+01 1.0566000000e-01 0.0000e+00 1.0000e+00
       13  1    1    2    0    0 +1.1664064166e+02 +6.7591352284e+01 -1.8552758308e+01 1.3608029319e+02 1.0566000000e-01 0.0000e+00 -1.0000e+00
      -13  1    1    2    0    0 -9.6747779188e+01 -5.8985111397e+01 -1.7287290275e+02 2.0669888199e+02 1.0566000000e-01 0.0000e+00 1.0000e+00
       13  1    1    2    0    0 -4.3624991257e+01 -2.5557421140e+01 +5.4232337821e+00 5.0850214023e+01 1.0566000000e-01 0.0000e+00 -1.0000e+00
<mgrwt>
<rscale>  0 0.41454382E+03</rscale>
<asrwt>0</asrwt>
<pdfrwt beam="1">  1        2 0.73723590E-01 0.41454382E+03</pdfrwt>
<pdfrwt beam="2">  1       -2 0.36421217E-01 0.41454382E+03</pdfrwt>
<totfact> 0.46577681E+02</totfact>
</mgrwt>
</event>
<event>
 6      1 +1.8175624e-03 5.19688700e+02 7.81860800e-03 1.00876400e-01
        2 -1    0    0  501    0 +0.0000000000e+00 +0.0000000000e+00 +4.0035417436e+02 4.0035417437e+02 2.5500000000e-03 0.0000e+00 1.0000e+00
       -2 -1    0    0    0  501 -0.0000000000e+00 -0.0000000000e+00 -1.6864836292e+02 1.6864836294e+02 2.5500000000e-03 0.0000e+00 -1.0000e+00
      -13  1    1    2    0    0 -7.7213478942e+01 -5.2947025645e+00 -7.6684653069e+01 1.0895183517e+02 1.0566000000e-01 0.0000e+00 1.0000e+00
       13  1    1    2    0    0 +1.2498321409e+02 +8.8965694615e+01 +2.6471902982e+02 3.0596057677e+02 1.0566000000e-01 0.0000e+00 -1.0000e+00
      -13  1    1    2    0    0 -6.0992577067e+01 -9.0386333153e+01 +1.1391297922e+00 1.0904628586e+02 1.0566000000e-01 0.0000e+00 1.0000e+00
       13  1    1    2    0    0 +1.3222841914e+01 +6.7153411027e+00 +4.2532304894e+01 4.5043839513e+01 1.0566000000e-01 0.0000e+00 -1.0000e+00
<mgrwt>
<rscale>  0 0.51968866E+03</rscale>
<asrwt>0</asrwt>
<pdfrwt beam="1">  1        2 0.10008854E+00 0.51968866E+03</pdfrwt>
<pdfrwt beam="2">  1       -2 0.42162091E-01 0.51968866E+03</pdfrwt>
<totfact> 0.24427639E+02</totfact>
</mgrwt>
</event>
<event>
 6      1 +1.8175624e-03 2.99349500e+02 7.81860800e-03 1.08556600e-01
        2 -1    0    0  501    0 +0.0000000000e+00 +0.0000000000e+00 +2.0618607202e+02 2.0618607204e+02 2.5500000000e-03 0.0000e+00 -1.0000e+00
       -2 -1    0    0    0  501 -0.0000000000e+00 -0.0000000000e+00 -1.0865198384e+02 1.0865198387e+02 2.5500000000e-03 0.0000e+00 1.0000e+00
      -13  1    1    2    0    0 +4.5335765646e+01 -3.3087910210e+01 +2.8496117694e+01 6.2945860360e+01 1.0566000000e-01 0.0000e+00 1.0000e+00
       13  1    1    2    0    0 +2.8251297384e+01 +5.5993946206e+01 +7.7757554209e+01 9.9898479549e+01 1.0566000000e-01 0.0000e+00 -1.0000e+00
      -13  1    1    2    0    0 -1.0088542081e+02 -2.0291552304e+01 -3.9988922603e+01 1.1040262824e+02 1.0566000000e-01 0.0000e+00 1.0000e+00
       13  1    1    2    0    0 +2.7298357780e+01 -2.6144836923e+00 +3.1269338883e+01 4.1591087756e+01 1.0566000000e-01 0.0000e+00 -1.0000e+00
<mgrwt>
<rscale>  0 0.29934947E+03</rscale>
<asrwt>0</asrwt>
<pdfrwt beam="1">  1        2 0.51546518E-01 0.29934947E+03</pdfrwt>
<pdfrwt beam="2">  1       -2 0.27162996E-01 0.29934947E+03</pdfrwt>
<totfact> 0.11894643E+03</totfact>
</mgrwt>
</event>
<event>
 6      1 +1.8175624e-03 4.15453900e+02 7.81860800e-03 1.03855600e-01
       -1 -1    0    0    0  501 -0.0000000000e+00 +0.0000000000e+00 +1.4177953911e+02 1.4177953920e+02 5.0400000000e-03 0.0000e+00 1.0000e+00
        1 -1    0    0  501    0 +0.0000000000e+00 -0.0000000000e+00 -3.0434917054e+02 3.0434917058e+02 5.0400000000e-03 0.0000e+00 -1.0000e+00
      -13  1    1    2    0    0 +1.2043550014e+01 -3.5776553080e-01 -6.1526899764e+01 6.2695658955e+01 1.0566000000e-01 0.0000e+00 -1.0000e+00
       13  1    1    2    0    0 +3.2344721931e+01 +6.1836786738e+00 +3.6937120964e+01 4.9485159269e+01 1.0566000000e-01 0.0000e+00 1.0000e+00
      -13  1    1    2    0    0 +1.1010155398e+02 +7.1509210158e+01 -6.2834964649e+01 1.4554780408e+02 1.0566000000e-01 0.0000e+00 1.0000e+00
       13  1    1    2    0    0 -1.5448982592e+02 -7.7335123301e+01 -7.5144887972e+01 1.8840008748e+02 1.0566000000e-01 0.0000e+00 -1.0000e+00
<mgrwt>
<rscale>  0 0.41545390E+03</rscale>
<asrwt>0</asrwt>
<pdfrwt beam="1">  1        1 0.76087291E-01 0.41545390E+03</pdfrwt>
<pdfrwt beam="2">  1       -1 0.35444885E-01 0.41545390E+03</pdfrwt>
<totfact> 0.34970284E+02</totfact>
</mgrwt>
</event>
<event>
 6      1 +1.8175624e-03 1.05843800e+03 7.81860800e-03 9.24667600e-02
        2 -1    0    0  501    0 +0.0000000000e+00 +0.0000000000e+00 +1.7576574744e+03 1.7576574744e+03 2.5500000000e-03 0.0000e+00 -1.0000e+00
       -2 -1    0    0    0  501 -0.0000000000e+00 -0.0000000000e+00 -1.5934428598e+02 1.5934428600e+02 2.5500000000e-03 0.0000e+00 1.0000e+00
      -13  1    1    2    0    0 +9.4277685866e+01 -3.0747244803e+01 +4.9296476826e+01 1.1074217312e+02 1.0566000000e-01 0.0000e+00 1.0000e+00
       13  1    1    2    0    0 -2.1327472772e+01 +1.6560798883e+01 +4.2847014092e+01 5.0645818536e+01 1.0566000000e-01 0.0000e+00 -1.0000e+00
      -13  1    1    2    0    0 +3.9283000001e+02 +8.3328898226e+01 +4.7488791912e+02 6.2191451268e+02 1.0566000000e-01 0.0000e+00 1.0000e+00
       13  1    1    2    0    0 -4.6578021311e+02 -6.9142452306e+01 +1.0312817784e+03 1.1336992560e+03 1.0566000000e-01 0.0000e+00 -1.0000e+00
<mgrwt>
<rscale>  0 0.10584379E+04</rscale>
<asrwt>0</asrwt>
<pdfrwt beam="1">  1        2 0.43941436E+00 0.10584379E+04</pdfrwt>
<pdfrwt beam="2">  1       -2 0.39836072E-01 0.10584379E+04</pdfrwt>
<totfact> 0.12899750E+01</totfact>
</mgrwt>
</event>
<event>
 6      1 +1.8175624e-03 2.97483700e+02 7.81860800e-03 1.08650500e-01
       -2 -1    0    0    0  501 -0.0000000000e+00 +0.0000000000e+00 +6.2677494050e+01 6.2677494102e+01 2.5500000000e-03 0.0000e+00 -1.0000e+00
        2 -1    0    0  501    0 +0.0000000000e+00 -0.0000000000e+00 -3.5298368598e+02 3.5298368599e+02 2.5500000000e-03 0.0000e+00 1.0000e+00
      -13  1    1    2    0    0 -7.4459033524e+00 +7.8943733475e+00 -3.3013971219e+01 3.4751921774e+01 1.0566000000e-01 0.0000e+00 -1.0000e+00
       13  1    1    2    0    0 +4.1258006125e+00 +1.1241869981e+01 -3.0418213186e+01 3.2690682600e+01 1.0566000000e-01 0.0000e+00 1.0000e+00
      -13  1    1    2    0    0 -6.6898254680e+01 -8.4689469428e+01 -6.8536320339e+00 1.0814187971e+02 1.0566000000e-01 0.0000e+00 -1.0000e+00
       13  1    1    2    0    0 +7.0218357420e+01 +6.5553226100e+01 -2.2002037549e+02 2.4007669601e+02 1.0566000000e-01 0.0000e+00 1.0000e+00
<mgrwt>
<rscale>  0 0.29748367E+03</rscale>
<asrwt>0</asrwt>
<pdfrwt beam="1">  1        2 0.88245916E-01 0.29748367E+03</pdfrwt>
<pdfrwt beam="2">  1       -2 0.15669374E-01 0.29748367E+03</pdfrwt>
<totfact> 0.16931137E+03</totfact>
</mgrwt>
</event>
<event>
 6      1 +1.8175624e-03 2.68262800e+02 7.81860800e-03 1.10227800e-01
       -2 -1    0    0    0  501 -0.0000000000e+00 +0.0000000000e+00 +3.7189687424e+01 3.7189687511e+01 2.5500000000e-03 0.0000e+00 -1.0000e+00
        2 -1    0    0  501    0 +0.0000000000e+00 -0.0000000000e+00 -4.8376948195e+02 4.8376948195e+02 2.5500000000e-03 0.0000e+00 1.0000e+00
      -13  1    1    2    0    0 +1.9568014873e+01 +3.0764339863e+01 -1.4105114701e+02 1.4568729887e+02 1.0566000000e-01 0.0000e+00 1.0000e+00
       13  1    1    2    0    0 -2.5832789438e+01 -6.4239391811e+01 -1.1222401561e+02 1.3186460220e+02 1.0566000000e-01 0.0000e+00 1.0000e+00
      -13  1    1    2    0    0 +7.4266618505e+01 +7.0236447684e+00 -1.0616531724e+02 1.2975341213e+02 1.0566000000e-01 0.0000e+00 -1.0000e+00
       13  1    1    2    0    0 -6.8001843941e+01 +2.6451407179e+01 -8.7139314659e+01 1.1365385627e+02 1.0566000000e-01 0.0000e+00 -1.0000e+00
<mgrwt>
<rscale>  0 0.26826283E+03</rscale>
<asrwt>0</asrwt>
<pdfrwt beam="1">  1        2 0.12094235E+00 0.26826283E+03</pdfrwt>
<pdfrwt beam="2">  1       -2 0.92974234E-02 0.26826283E+03</pdfrwt>
<totfact> 0.26983033E+03</totfact>
</mgrwt>
</event>
<event>
 6      1 +1.8175624e-03 4.19865500e+02 7.81860800e-03 1.03711000e-01
       -2 -1    0    0    0  501 -0.0000000000e+00 +0.0000000000e+00 +7.1208454349e+01 7.1208454395e+01 2.5500000000e-03 0.0000e+00 1.0000e+00
        2 -1    0    0  501    0 +0.0000000000e+00 -0.0000000000e+00 -6.1891199602e+02 6.1891199602e+02 2.5500000000e-03 0.0000e+00 -1.0000e+00
      -13  1    1    2    0    0 -8.7969968217e-01 -1.5844733966e+01 -6.4410538948e+00 1.7126815387e+01 1.0566000000e-01 0.0000e+00 1.0000e+00
       13  1    1    2    0    0 -3.6612725637e+01 +6.8071793614e+01 -3.8496855224e+02 3.9265131878e+02 1.0566000000e-01 0.0000e+00 -1.0000e+00
      -13  1    1    2    0    0 +7.2718985718e+01 -1.2909122797e+02 -1.0106825485e+02 1.7935272322e+02 1.0566000000e-01 0.0000e+00 1.0000e+00
       13  1    1    2    0    0 -3.5226560399e+01 +7.6864168323e+01 -5.5225680680e+01 1.0098959303e+02 1.0566000000e-01 0.0000e+00 -1.0000e+00
<mgrwt>
<rscale>  0 0.41986553E+03</rscale>
<asrwt>0</asrwt>
<pdfrwt beam="1">  1        2 0.15472798E+00 0.41986553E+03</pdfrwt>
<pdfrwt beam="2">  1       -2 0.17802115E-01 0.41986553E+03</pdfrwt>
<totfact> 0.66495162E+02</totfact>
</mgrwt>
</event>
<event>
 6      1 +1.8175624e-03 1.17089700e+03 7.81860800e-03 9.13871800e-02
       -2 -1    0    0    0  501 -0.0000000000e+00 +0.0000000000e+00 +4.0105144619e+02 4.0105144620e+02 2.5500000000e-03 0.0000e+00 -1.0000e+00
        2 -1    0    0  501    0 +0.0000000000e+00 -0.0000000000e+00 -8.5462900905e+02 8.5462900906e+02 2.5500000000e-03 0.0000e+00 1.0000e+00
      -13  1    1    2    0    0 -3.4678427424e+02 -3.1637706463e+02 +5.4672849280e-01 4.6941888538e+02 1.0566000000e-01 0.0000e+00 -1.0000e+00
       13  1    1    2    0    0 -1.3416642125e+01 +6.8110713389e+01 +3.8045813276e+01 7.9161674036e+01 1.0566000000e-01 0.0000e+00 -1.0000e+00
      -13  1    1    2    0    0 +8.0653475738e+01 +5.9414740836e+01 +1.1555749119e+01 1.0083968008e+02 1.0566000000e-01 0.0000e+00 1.0000e+00
       13  1    1    2    0    0 +2.7954744062e+02 +1.8885161040e+02 -5.0372585375e+02 6.0626021576e+02 1.0566000000e-01 0.0000e+00 1.0000e+00
<mgrwt>
<rscale>  0 0.11708974E+04</rscale>
<asrwt>0</asrwt>
<pdfrwt beam="1">  1        2 0.21365725E+00 0.11708974E+04</pdfrwt>
<pdfrwt beam="2">  1       -2 0.10026286E+00 0.11708974E+04</pdfrwt>
<totfact> 0.11815581E+01</totfact>
</mgrwt>
</event>
<event>
 6      1 +1.8175624e-03 1.63091100e+02 7.81860800e-03 1.18525000e-01
       -1 -1    0    0    0  501 -0.0000000000e+00 +0.0000000000e+00 +1.8110393502e+01 1.8110394204e+01 5.0400000000e-03 0.0000e+00 1.0000e+00
        1 -1    0    0  501    0 +0.0000000000e+00 -0.0000000000e+00 -3.6717456932e+02 3.6717456936e+02 5.0400000000e-03 0.0000e+00 -1.0000e+00
      -13  1    1    2    0    0 +1.2495313886e+01 +1.9036320997e+01 -1.7929028551e+01 2.8982332809e+01 1.0566000000e-01 0.0000e+00 1.0000e+00
       13  1    1    2    0    0 +1.5680840896e+01 +1.0309972062e+01 -4.5447587185e+01 4.9169895669e+01 1.0566000000e-01 0.0000e+00 -1.0000e+00
      -13  1    1    2    0    0 -3.3190006649e+01 -6.1252897338e+01 -1.2381329135e+02 1.4206771713e+02 1.0566000000e-01 0.0000e+00 1.0000e+00
       13  1    1    2    0    0 +5.0138518670e+00 +3.1906604278e+01 -1.6187426874e+02 1.6506501795e+02 1.0566000000e-01 0.0000e+00 -1.0000e+00
<mgrwt>
<rscale>  0 0.16309109E+03</rscale>
<asrwt>0</asrwt>
<pdfrwt beam="1">  1        1 0.91793618E-01 0.16309109E+03</pdfrwt>
<pdfrwt beam="2">  1       -1 0.45275997E-02 0.16309109E+03</pdfrwt>
<totfact> 0.70328757E+03</totfact>
</mgrwt>
</event>
<event>
 6      1 +1.8175624e-03 2.69157100e+02 7.81860800e-03 1.10176300e-01
       -2 -1    0    0    0  501 -0.0000000000e+00 +0.0000000000e+00 +1.4159362284e+02 1.4159362286e+02 2.5500000000e-03 0.0000e+00 1.0000e+00
        2 -1    0    0  501    0 +0.0000000000e+00 -0.0000000000e+00 -1.2791099038e+02 1.2791099040e+02 2.5500000000e-03 0.0000e+00 -1.0000e+00
      -13  1    1    2    0    0 +1.0782583162e+01 +5.1513855577e+01 +2.9500945891e+01 6.0334553853e+01 1.0566000000e-01 0.0000e+00 1.0000e+00
       13  1    1    2    0    0 -5.0835903289e+01 -1.5436142315e+01 -6.9600126572e+01 8.7559992780e+01 1.0566000000e-01 0.0000e+00 -1.0000e+00
      -13  1    1    2    0    0 +6.4709298233e+01 -3.0276162950e+01 +6.2398216794e+01 9.4855089183e+01 1.0566000000e-01 0.0000e+00 1.0000e+00
       13  1    1    2    0    0 -2.4655978106e+01 -5.8015503131e+00 -8.6164036529e+00 2.6754977450e+01 1.0566000000e-01 0.0000e+00 -1.0000e+00
<mgrwt>
<rscale>  0 0.26915706E+03</rscale>
<asrwt>0</asrwt>
<pdfrwt beam="1">  1        2 0.31977748E-01 0.26915706E+03</pdfrwt>
<pdfrwt beam="2">  1       -2 0.35398406E-01 0.26915706E+03</pdfrwt>
<totfact> 0.12282500E+03</totfact>
</mgrwt>
</event>
<event>
 6      1 +1.8175624e-03 2.95181400e+02 7.81860800e-03 1.08767400e-01
        1 -1    0    0  501    0 +0.0000000000e+00 +0.0000000000e+00 +3.3673649876e+02 3.3673649880e+02 5.0400000000e-03 0.0000e+00 -1.0000e+00
       -1 -1    0    0    0  501 -0.0000000000e+00 -0.0000000000e+00 -6.4688616112e+01 6.4688616309e+01 5.0400000000e-03 0.0000e+00 1.0000e+00
      -13  1    1    2    0    0 -3.4893939486e+01 -1.7690269677e+01 +1.2477035911e+02 1.3076003339e+02 1.0566000000e-01 0.0000e+00 -1.0000e+00
       13  1    1    2    0    0 +1.8636791434e+01 +1.3480474076e+01 +6.4964795302e+01 6.8916536252e+01 1.0566000000e-01 0.0000e+00 -1.0000e+00
      -13  1    1    2    0    0 +6.8977567061e+01 -6.3924586554e+01 +2.1994131049e+01 9.6581626040e+01 1.0566000000e-01 0.0000e+00 1.0000e+00
       13  1    1    2    0    0 -5.2720419009e+01 +6.8134382155e+01 +6.0318597188e+01 1.0516691943e+02 1.0566000000e-01 0.0000e+00 1.0000e+00
<mgrwt>
<rscale>  0 0.29518142E+03</rscale>
<asrwt>0</asrwt>
<pdfrwt beam="1">  1        1 0.84184125E-01 0.29518142E+03</pdfrwt>
<pdfrwt beam="2">  1       -1 0.16172154E-01 0.29518142E+03</pdfrwt>
<totfact> 0.11396549E+03</totfact>
</mgrwt>
</event>
<event>
 6      1 +1.8175624e-03 3.12025000e+02 7.81860800e-03 1.07937900e-01
        2 -1    0    0  501    0 +0.0000000000e+00 +0.0000000000e+00 +2.2724770640e+02 2.2724770642e+02 2.5500000000e-03 0.0000e+00 1.0000e+00
       -2 -1    0    0    0  501 -0.0000000000e+00 -0.0000000000e+00 -1.0710737006e+02 1.0710737009e+02 2.5500000000e-03 0.0000e+00 -1.0000e+00
      -13  1    1    2    0    0 +7.1905688711e+01 +5.0018231622e+01 +8.0214814792e+01 1.1877154221e+02 1.0566000000e-01 0.0000e+00 1.0000e+00
       13  1    1    2    0    0 -5.1979847253e+01 -8.7912027765e+01 +7.6800130147e+00 1.0241788374e+02 1.0566000000e-01 0.0000e+00 1.0000e+00
      -13  1    1    2    0    0 +1.3380063300e+01 +1.7973333645e+01 -3.1427661721e+01 3.8597615231e+01 1.0566000000e-01 0.0000e+00 -1.0000e+00
       13  1    1    2    0    0 -3.3305904758e+01 +1.9920462498e+01 +6.3673170253e+01 7.4568035324e+01 1.0566000000e-01 0.0000e+00 -1.0000e+00
<mgrwt>
<rscale>  0 0.31202503E+03</rscale>
<asrwt>0</asrwt>
<pdfrwt beam="1">  1        2 0.56811927E-01 0.31202503E+03</pdfrwt>
<pdfrwt beam="2">  1       -2 0.26776843E-01 0.31202503E+03</pdfrwt>
<totfact> 0.10980877E+03</totfact>
</mgrwt>
</event>
<event>
 6      1 +1.8175624e-03 3.68091200e+02 7.81860800e-03 1.05542500e-01
        2 -1    0    0  501    0 +0.0000000000e+00 +0.0000000000e+00 +3.3732866930e+02 3.3732866931e+02 2.5500000000e-03 0.0000e+00 -1.0000e+00
       -2 -1    0    0    0  501 -0.0000000000e+00 -0.0000000000e+00 -1.0041475250e+02 1.0041475254e+02 2.5500000000e-03 0.0000e+00 1.0000e+00
      -13  1    1    2    0    0 -6.9215398857e+00 +1.4748103582e+02 +6.3304608394e+01 1.6064261032e+02 1.0566000000e-01 0.0000e+00 1.0000e+00
       13  1    1    2    0    0 -4.1683569404e+00 -3.8202865699e+01 -2.6733203109e+01 4.6813560639e+01 1.0566000000e-01 0.0000e+00 1.0000e+00
      -13  1    1    2    0    0 +1.8218116456e+01 -5.0033460519e+01 +8.2372763930e+01 9.8084302211e+01 1.0566000000e-01 0.0000e+00 -1.0000e+00
       13  1    1    2    0    0 -7.1282196302e+00 -5.9244709604e+01 +1.1796974758e+02 1.3220294868e+02 1.0566000000e-01 0.0000e+00 -1.0000e+00
<mgrwt>
<rscale>  0 0.36809116E+03</rscale>
<asrwt>0</asrwt>
<pdfrwt beam="1">  1        2 0.84332167E-01 0.36809116E+03</pdfrwt>
<pdfrwt beam="2">  1       -2 0.25103688E-01 0.36809116E+03</pdfrwt>
<totfact> 0.79253005E+02</totfact>
</mgrwt>
</event>
<event>
 6      1 +1.8175624e-03 6.48960300e+02 7.81860800e-03 9.80873200e-02
       -1 -1    0    0    0  501 -0.0000000000e+00 +0.0000000000e+00 +3.7883291789e+02 3.7883291792e+02 5.0400000000e-03 0.0000e+00 1.0000e+00
        1 -1    0    0  501    0 +0.0000000000e+00 -0.0000000000e+00 -2.7792558056e+02 2.7792558060e+02 5.0400000000e-03 0.0000e+00 -1.0000e+00
      -13  1    1    2    0    0 +9.4862193655e+00 +3.1550645484e+01 -1.5177316766e+02 1.5530787866e+02 1.0566000000e-01 0.0000e+00 -1.0000e+00
       13  1    1    2    0    0 +9.5835627881e+01 -1.7284347627e+02 +6.2542198813e+01 2.0729416938e+02 1.0566000000e-01 0.0000e+00 -1.0000e+00
      -13  1    1    2    0    0 -7.9286080875e+01 +1.6365802398e+02 +1.8506645173e+02 2.5946066013e+02 1.0566000000e-01 0.0000e+00 1.0000e+00
       13  1    1    2    0    0 -2.6035766372e+01 -2.2365193191e+01 +5.0718544400e+00 3.4695790357e+01 1.0566000000e-01 0.0000e+00 1.0000e+00
<mgrwt>
<rscale>  0 0.64896027E+03</rscale>
<asrwt>0</asrwt>
<pdfrwt beam="1">  1        1 0.69481395E-01 0.64896027E+03</pdfrwt>
<pdfrwt beam="2">  1       -1 0.94708229E-01 0.64896027E+03</pdfrwt>
<totfact> 0.56552156E+01</totfact>
</mgrwt>
</event>
<event>
 6      1 +1.8175624e-03 2.29583600e+02 7.81860800e-03 1.12693300e-01
        2 -1    0    0  501    0 +0.0000000000e+00 +0.0000000000e+00 +3.7656737995e+02 3.7656737996e+02 2.5500000000e-03 0.0000e+00 -1.0000e+00
       -2 -1    0    0    0  501 -0.0000000000e+00 -0.0000000000e+00 -3.4992814592e+01 3.4992814685e+01 2.5500000000e-03 0.0000e+00 1.0000e+00
      -13  1    1    2    0    0 -1.5665131583e+01 +7.4323970658e+01 +1.6744891216e+02 1.8387114594e+02 1.0566000000e-01 0.0000e+00 1.0000e+00
       13  1    1    2    0    0 +4.4236115012e-01 -2.6281150290e+01 +1.6036398583e+01 3.0790774389e+01 1.0566000000e-01 0.0000e+00 -1.0000e+00
      -13  1    1    2    0    0 -3.3899240720e+01 -1.1049102902e+01 +1.0748014553e+01 3.7239390129e+01 1.0566000000e-01 0.0000e+00 1.0000e+00
       13  1    1    2    0    0 +4.9122011153e+01 -3.6993717466e+01 +1.4734124007e+02 1.5965888419e+02 1.0566000000e-01 0.0000e+00 -1.0000e+00
<mgrwt>
<rscale>  0 0.22958356E+03</rscale>
<asrwt>0</asrwt>
<pdfrwt beam="1">  1        2 0.94141843E-01 0.22958356E+03</pdfrwt>
<pdfrwt beam="2">  1       -2 0.87482039E-02 0.22958356E+03</pdfrwt>
<totfact> 0.40113314E+03</totfact>
</mgrwt>
</event>
<event>
 6      1 +1.8175624e-03 4.30357000e+02 7.81860800e-03 1.03374700e-01
       -4 -1    0    0    0  501 -0.0000000000e+00 +0.0000000000e+00 +1.9134015683e+02 1.9134437153e+02 1.2700000000e+00 0.0000e+00 1.0000e+00
        4 -1    0    0  501    0 +0.0000000000e+00 -0.0000000000e+00 -2.4197827174e+02 2.4198160446e+02 1.2700000000e+00 0.0000e+00 -1.0000e+00
      -13  1    1    2    0    0 +1.6676286188e+01 -5.9593390187e+01 +8.1084873610e+01 1.0200116944e+02 1.0566000000e-01 0.0000e+00 1.0000e+00
       13  1    1    2    0    0 -3.2229535440e+01 -7.5111277309e+01 -1.4558040710e+02 1.6695542228e+02 1.0566000000e-01 0.0000e+00 1.0000e+00
      -13  1    1    2    0    0 +3.0757348005e+01 +1.6238173643e+01 -2.0134486343e+01 4.0188324721e+01 1.0566000000e-01 0.0000e+00 -1.0000e+00
       13  1    1    2    0    0 -1.5204098753e+01 +1.1846649385e+02 +3.3991904925e+01 1.2418105954e+02 1.0566000000e-01 0.0000e+00 -1.0000e+00
<mgrwt>
<rscale>  0 0.43035704E+03</rscale>
<asrwt>0</asrwt>
<pdfrwt beam="1">  1        4 0.60495511E-01 0.43035704E+03</pdfrwt>
<pdfrwt beam="2">  1       -4 0.47835983E-01 0.43035704E+03</pdfrwt>
<totfact> 0.20976004E+01</totfact>
</mgrwt>
</event>
<event>
 6      1 +1.8175624e-03 2.54554800e+02 7.81860800e-03 1.11046000e-01
        2 -1    0    0  501    0 +0.0000000000e+00 +0.0000000000e+00 +2.6789595419e+02 2.6789595421e+02 2.5500000000e-03 0.0000e+00 -1.0000e+00
       -2 -1    0    0    0  501 -0.0000000000e+00 -0.0000000000e+00 -6.0469530850e+01 6.0469530904e+01 2.5500000000e-03 0.0000e+00 1.0000e+00
      -13  1    1    2    0    0 +2.3418866563e+01 +4.8166866477e+01 +3.7385690588e+01 6.5316088080e+01 1.0566000000e-01 0.0000e+00 1.0000e+00
       13  1    1    2    0    0 -4.0459677945e+01 -3.3277368221e+01 +9.0544653060e+00 5.3163552187e+01 1.0566000000e-01 0.0000e+00 1.0000e+00
      -13  1    1    2    0    0 +5.9725285326e+01 -3.0685770701e+01 +3.4565163339e+01 7.5521440078e+01 1.0566000000e-01 0.0000e+00 -1.0000e+00
       13  1    1    2    0    0 -4.2684473945e+01 +1.5796272445e+01 +1.2642110411e+02 1.3436440476e+02 1.0566000000e-01 0.0000e+00 -1.0000e+00
<mgrwt>
<rscale>  0 0.25455485E+03</rscale>
<asrwt>0</asrwt>
<pdfrwt beam="1">  1        2 0.66973988E-01 0.25455485E+03</pdfrwt>
<pdfrwt beam="2">  1       -2 0.15117383E-01 0.25455485E+03</pdfrwt>
<totfact> 0.24455185E+03</totfact>
</mgrwt>
</event>
<event>
 6      1 +1.8175624e-03 2.13637700e+02 7.81860800e-03 1.13871700e-01
        1 -1    0    0  501    0 +0.0000000000e+00 +0.0000000000e+00 +3.1387456733e+01 3.1387457138e+01 5.0400000000e-03 0.0000e+00 -1.0000e+00
       -1 -1    0    0    0  501 -0.0000000000e+00 -0.0000000000e+00 -3.6352944831e+02 3.6352944834e+02 5.0400000000e-03 0.0000e+00 1.0000e+00
      -13  1    1    2    0    0 +7.3794890673e+00 +3.4510358991e+01 -9.8982573079e+01 1.0508559689e+02 1.0566000000e-01 0.0000e+00 1.0000e+00
       13  1    1    2    0    0 -3.9523524543e+01 -1.6041183955e+01 -2.2344984029e+02 2.2748466072e+02 1.0566000000e-01 0.0000e+00 1.0000e+00
      -13  1    1    2    0    0 -1.0173651552e+01 -6.1328252219e+00 +8.5484669714e+00 1.4635647669e+01 1.0566000000e-01 0.0000e+00 -1.0000e+00
       13  1    1    2    0    0 +4.2317687028e+01 -1.2336349813e+01 -1.8258045179e+01 4.7711000198e+01 1.0566000000e-01 0.0000e+00 -1.0000e+00
<mgrwt>
<rscale>  0 0.21363768E+03</rscale>
<asrwt>0</asrwt>
<pdfrwt beam="1">  1        1 0.78468654E-02 0.21363768E+03</pdfrwt>
<pdfrwt beam="2">  1       -1 0.90882349E-01 0.21363768E+03</pdfrwt>
<totfact> 0.11042860E+03</totfact>
</mgrwt>
</event>
<event>
 6      1 +1.8175624e-03 3.68896700e+02 7.81860800e-03 1.05511600e-01
        2 -1    0    0  501    0 +0.0000000000e+00 +0.0000000000e+00 +3.9539681410e+02 3.9539681411e+02 2.5500000000e-03 0.0000e+00 1.0000e+00
       -2 -1    0    0    0  501 -0.0000000000e+00 -0.0000000000e+00 -8.6043154532e+01 8.6043154570e+01 2.5500000000e-03 0.0000e+00 -1.0000e+00
      -13  1    1    2    0    0 -2.4372962205e+01 -6.7708299524e+01 +1.4179339763e+02 1.5900891134e+02 1.0566000000e-01 0.0000e+00 1.0000e+00
       13  1    1    2    0    0 -5.1107335997e+01 +3.8627619109e+01 +1.2094602177e+02 1.3686491186e+02 1.0566000000e-01 0.0000e+00 1.0000e+00
      -13  1    1    2    0    0 +1.1403903869e+02 -1.4718846785e+00 -5.1351577495e+00 1.1416413535e+02 1.0566000000e-01 0.0000e+00 -1.0000e+00
       13  1    1    2    0    0 -3.8558740492e+01 +3.0552565093e+01 +5.1749397915e+01 7.1402010130e+01 1.0566000000e-01 0.0000e+00 -1.0000e+00
<mgrwt>
<rscale>  0 0.36889667E+03</rscale>
<asrwt>0</asrwt>
<pdfrwt beam="1">  1        2 0.98849202E-01 0.36889667E+03</pdfrwt>
<pdfrwt beam="2">  1       -2 0.21510789E-01 0.36889667E+03</pdfrwt>
<totfact> 0.86309231E+02</totfact>
</mgrwt>
</event>
<event>
 6      1 +1.8175624e-03 2.01464400e+02 7.81860800e-03 1.14850900e-01
        2 -1    0    0  501    0 +0.0000000000e+00 +0.0000000000e+00 +3.3729545247e+02 3.3729545248e+02 2.5500000000e-03 0.0000e+00 -1.0000e+00
       -2 -1    0    0    0  501 -0.0000000000e+00 -0.0000000000e+00 -3.0083338368e+01 3.0083338476e+01 2.5500000000e-03 0.0000e+00 1.0000e+00
      -13  1    1    2    0    0 +2.4516465127e+01 -3.9482734268e+00 +1.2325880834e+01 2.7723355276e+01 1.0566000000e-01 0.0000e+00 1.0000e+00
       13  1    1    2    0    0 -5.1539361126e+01 +5.2109335054e+01 +1.0787202276e+02 1.3041500298e+02 1.0566000000e-01 0.0000e+00 -1.0000e+00
      -13  1    1    2    0    0 +4.1667343321e+01 -1.6922186678e+01 +4.7049133655e+01 6.5085789871e+01 1.0566000000e-01 0.0000e+00 1.0000e+00
       13  1    1    2    0    0 -1.4644447322e+01 -3.1238874949e+01 +1.3996507685e+02 1.4415464283e+02 1.0566000000e-01 0.0000e+00 -1.0000e+00
<mgrwt>
<rscale>  0 0.20146437E+03</rscale>
<asrwt>0</asrwt>
<pdfrwt beam="1">  1        2 0.84323862E-01 0.20146437E+03</pdfrwt>
<pdfrwt beam="2">  1       -2 0.75208347E-02 0.20146437E+03</pdfrwt>
<totfact> 0.57360513E+03</totfact>
</mgrwt>
</event>
<event>
 6      1 +1.8175624e-03 3.71076700e+02 7.81860800e-03 1.05428200e-01
        1 -1    0    0  501    0 +0.0000000000e+00 +0.0000000000e+00 +1.8386762634e+02 1.8386762641e+02 5.0400000000e-03 0.0000e+00 1.0000e+00
       -1 -1    0    0    0  501 -0.0000000000e+00 -0.0000000000e+00 -1.8722429497e+02 1.8722429504e+02 5.0400000000e-03 0.0000e+00 -1.0000e+00
      -13  1    1    2    0    0 +2.6649792507e+01 +3.3929414992e+01 -4.0884554427e+01 5.9438830718e+01 1.0566000000e-01 0.0000e+00 -1.0000e+00
       13  1    1    2    0    0 -6.6380081996e+01 +2.9788039848e+01 +1.3402698376e+01 7.3981660508e+01 1.0566000000e-01 0.0000e+00 1.0000e+00
      -13  1    1    2    0    0 -1.3806954197e+01 +6.7283423174e+01 -4.3005467584e+01 8.1038092429e+01 1.0566000000e-01 0.0000e+00 -1.0000e+00
       13  1    1    2    0    0 +5.3537243686e+01 -1.3100087801e+02 +6.7130655003e+01 1.5663333779e+02 1.0566000000e-01 0.0000e+00 1.0000e+00
<mgrwt>
<rscale>  0 0.37107674E+03</rscale>
<asrwt>0</asrwt>
<pdfrwt beam="1">  1        1 0.45966907E-01 0.37107674E+03</pdfrwt>
<pdfrwt beam="2">  1       -1 0.46806074E-01 0.37107674E+03</pdfrwt>
<totfact> 0.40935284E+02</totfact>
</mgrwt>
</event>
<event>
 6      1 +1.8175624e-03 4.50315300e+02 7.81860800e-03 1.02762800e-01
       -2 -1    0    0    0  501 -0.0000000000e+00 +0.0000000000e+00 +1.2992840269e+02 1.2992840272e+02 2.5500000000e-03 0.0000e+00 -1.0000e+00
        2 -1    0    0  501    0 +0.0000000000e+00 -0.0000000000e+00 -3.9018394316e+02 3.9018394317e+02 2.5500000000e-03 0.0000e+00 1.0000e+00
      -13  1    1    2    0    0 +8.5544414188e+01 +8.7369113681e+01 -1.6588644462e+02 2.0608137348e+02 1.0566000000e-01 0.0000e+00 -1.0000e+00
       13  1    1    2    0    0 -1.1172766879e+01 -4.3075873699e+00 +2.5543301063e+01 2.8210945073e+01 1.0566000000e-01 0.0000e+00 1.0000e+00
      -13  1    1    2    0    0 +8.2401465773e+01 -1.2615325478e+01 -1.5719283604e+01 8.4830743481e+01 1.0566000000e-01 0.0000e+00 -1.0000e+00
       13  1    1    2    0    0 -1.5677311308e+02 -7.0446200833e+01 -1.0419311331e+02 2.0098928385e+02 1.0566000000e-01 0.0000e+00 1.0000e+00
<mgrwt>
<rscale>  0 0.45031534E+03</rscale>
<asrwt>0</asrwt>
<pdfrwt beam="1">  1        2 0.97545983E-01 0.45031534E+03</pdfrwt>
<pdfrwt beam="2">  1       -2 0.32482102E-01 0.45031534E+03</pdfrwt>
<totfact> 0.41626309E+02</totfact>
</mgrwt>
</event>
<event>
 6      1 +1.8175624e-03 3.26282400e+02 7.81860800e-03 1.07279400e-01
        2 -1    0    0  501    0 +0.0000000000e+00 +0.0000000000e+00 +3.0445598040e+02 3.0445598041e+02 2.5500000000e-03 0.0000e+00 -1.0000e+00
       -2 -1    0    0    0  501 -0.0000000000e+00 -0.0000000000e+00 -8.7418388082e+01 8.7418388119e+01 2.5500000000e-03 0.0000e+00 1.0000e+00
      -13  1    1    2    0    0 +1.3234019576e+01 +6.5249821837e+01 +1.2901118081e+02 1.4517773404e+02 1.0566000000e-01 0.0000e+00 1.0000e+00
       13  1    1    2    0    0 -4.5016522799e+01 -2.6431903179e+01 +1.5067707284e+02 1.5946386511e+02 1.0566000000e-01 0.0000e+00 -1.0000e+00
      -13  1    1    2    0    0 +9.8840789095e+00 -2.8150251885e+01 -1.4283624469e+01 3.3078161815e+01 1.0566000000e-01 0.0000e+00 -1.0000e+00
       13  1    1    2    0    0 +2.1898424313e+01 -1.0667666773e+01 -4.8367036863e+01 5.4154607566e+01 1.0566000000e-01 0.0000e+00 1.0000e+00
<mgrwt>
<rscale>  0 0.32628240E+03</rscale>
<asrwt>0</asrwt>
<pdfrwt beam="1">  1        2 0.76113994E-01 0.32628240E+03</pdfrwt>
<pdfrwt beam="2">  1       -2 0.21854597E-01 0.32628240E+03</pdfrwt>
<totfact> 0.11377355E+03</totfact>
</mgrwt>
</event>
<event>
 6      1 +1.8175624e-03 1.15090800e+03 7.81860800e-03 9.15694600e-02
        2 -1    0    0  501    0 +0.0000000000e+00 +0.0000000000e+00 +3.9304994391e+02 3.9304994392e+02 2.5500000000e-03 0.0000e+00 -1.0000e+00
       -2 -1    0    0    0  501 -0.0000000000e+00 -0.0000000000e+00 -8.4250686571e+02 8.4250686572e+02 2.5500000000e-03 0.0000e+00 1.0000e+00
      -13  1    1    2    0    0 -7.2374536162e+00 +4.3915342797e+01 -7.8597721761e+00 4.5196518124e+01 1.0566000000e-01 0.0000e+00 1.0000e+00
       13  1    1    2    0    0 +1.8713077277e+02 +2.3429460223e+02 +6.0335713742e+01 3.0586319862e+02 1.0566000000e-01 0.0000e+00 -1.0000e+00
      -13  1    1    2    0    0 +6.3172270352e+01 -2.8952859376e+02 -5.6068045551e+02 6.3417673144e+02 1.0566000000e-01 0.0000e+00 1.0000e+00
       13  1    1    2    0    0 -2.4306558951e+02 +1.1318648729e+01 +5.8747592149e+01 2.5032036145e+02 1.0566000000e-01 0.0000e+00 -1.0000e+00
<mgrwt>
<rscale>  0 0.11509079E+04</rscale>
<asrwt>0</asrwt>
<pdfrwt beam="1">  1        2 0.98262487E-01 0.11509079E+04</pdfrwt>
<pdfrwt beam="2">  1       -2 0.21062671E+00 0.11509079E+04</pdfrwt>
<totfact> 0.51169103E+00</totfact>
</mgrwt>
</event>
<event>
 6      1 +1.8175624e-03 3.40650400e+02 7.81860800e-03 1.06651900e-01
       -2 -1    0    0    0  501 -0.0000000000e+00 +0.0000000000e+00 +4.2460094844e+02 4.2460094844e+02 2.5500000000e-03 0.0000e+00 -1.0000e+00
        2 -1    0    0  501    0 +0.0000000000e+00 -0.0000000000e+00 -6.8324547379e+01 6.8324547427e+01 2.5500000000e-03 0.0000e+00 1.0000e+00
      -13  1    1    2    0    0 -7.7669379164e+00 +2.4119706457e+01 +3.8876651105e+01 4.6405718714e+01 1.0566000000e-01 0.0000e+00 -1.0000e+00
       13  1    1    2    0    0 -2.3245703574e+01 -1.3631498502e+02 +1.5351034801e+02 2.0660971900e+02 1.0566000000e-01 0.0000e+00 1.0000e+00
      -13  1    1    2    0    0 -2.8304667304e+01 -1.1494073008e+00 -4.2409714780e+00 2.8643888204e+01 1.0566000000e-01 0.0000e+00 -1.0000e+00
       13  1    1    2    0    0 +5.9317308795e+01 +1.1334468586e+02 +1.6813037342e+02 2.1126616995e+02 1.0566000000e-01 0.0000e+00 1.0000e+00
<mgrwt>
<rscale>  0 0.34065036E+03</rscale>
<asrwt>0</asrwt>
<pdfrwt beam="1">  1        2 0.17081137E-01 0.34065036E+03</pdfrwt>
<pdfrwt beam="2">  1       -2 0.10615024E+00 0.34065036E+03</pdfrwt>
<totfact> 0.24939734E+02</totfact>
</mgrwt>
</event>
<event>
 6      1 +1.8175624e-03 1.72477300e+03 7.81860800e-03 8.74736000e-02
        2 -1    0    0  501    0 +0.0000000000e+00 +0.0000000000e+00 +1.0208228667e+03 1.0208228667e+03 2.5500000000e-03 0.0000e+00 1.0000e+00
       -2 -1    0    0    0  501 -0.0000000000e+00 -0.0000000000e+00 -7.2854023448e+02 7.2854023448e+02 2.5500000000e-03 0.0000e+00 -1.0000e+00
      -13  1    1    2    0    0 +1.6355802948e+02 -5.4774555678e+02 -3.4704469063e+00 5.7165416044e+02 1.0566000000e-01 0.0000e+00 -1.0000e+00
       13  1    1    2    0    0 -1.2497885078e+02 +4.8663540419e+02 +6.3961703793e+02 8.1335336486e+02 1.0566000000e-01 0.0000e+00 1.0000e+00
      -13  1    1    2    0    0 -2.5894057687e+01 +8.1809739447e+01 -3.1578666426e+02 3.2723777926e+02 1.0566000000e-01 0.0000e+00 -1.0000e+00
       13  1    1    2    0    0 -1.2685121012e+01 -2.0699586858e+01 -2.8077294559e+01 3.7117796607e+01 1.0566000000e-01 0.0000e+00 1.0000e+00
<mgrwt>
<rscale>  0 0.17247731E+04</rscale>
<asrwt>0</asrwt>
<pdfrwt beam="1">  1        2 0.25520572E+00 0.17247731E+04</pdfrwt>
<pdfrwt beam="2">  1       -2 0.18213506E+00 0.17247731E+04</pdfrwt>
<totfact> 0.16774043E+00</totfact>
</mgrwt>
</event>
<event>
 6      1 +1.8175624e-03 1.69808600e+02 7.81860800e-03 1.17804800e-01
        3 -1    0    0  501    0 +0.0000000000e+00 +0.0000000000e+00 +9.6555356532e+01 9.6555409357e+01 1.0100000000e-01 0.0000e+00 -1.0000e+00
       -3 -1    0    0    0  501 -0.0000000000e+00 -0.0000000000e+00 -7.4658996224e+01 7.4659064541e+01 1.0100000000e-01 0.0000e+00 1.0000e+00
      -13  1    1    2    0    0 +1.2153136407e+01 -1.4827937471e+01 +6.6722836303e+00 2.0300172094e+01 1.0566000000e-01 0.0000e+00 1.0000e+00
       13  1    1    2    0    0 +1.5096151298e+01 -8.4019949012e-02 +5.6365837273e+01 5.8352545950e+01 1.0566000000e-01 0.0000e+00 -1.0000e+00
      -13  1    1    2    0    0 -2.3284755457e+01 -2.5550629677e+01 -3.8613254774e+01 5.1826722083e+01 1.0566000000e-01 0.0000e+00 1.0000e+00
       13  1    1    2    0    0 -3.9645322477e+00 +4.0462587097e+01 -2.5285058211e+00 4.0735033770e+01 1.0566000000e-01 0.0000e+00 -1.0000e+00
<mgrwt>
<rscale>  0 0.16980856E+03</rscale>
<asrwt>0</asrwt>
<pdfrwt beam="1">  1        3 0.24138854E-01 0.16980856E+03</pdfrwt>
<pdfrwt beam="2">  1       -3 0.18664764E-01 0.16980856E+03</pdfrwt>
<totfact> 0.96884558E+02</totfact>
</mgrwt>
</event>
<event>
 6      1 +1.8175624e-03 3.71074900e+02 7.81860800e-03 1.05428300e-01
       -2 -1    0    0    0  501 -0.0000000000e+00 +0.0000000000e+00 +6.5587713988e+01 6.5587714038e+01 2.5500000000e-03 0.0000e+00 1.0000e+00
        2 -1    0    0  501    0 +0.0000000000e+00 -0.0000000000e+00 -5.2485647606e+02 5.2485647607e+02 2.5500000000e-03 0.0000e+00 -1.0000e+00
      -13  1    1    2    0    0 -1.8314749222e+00 +9.7677619781e+01 -1.1067720144e+02 1.4762698191e+02 1.0566000000e-01 0.0000e+00 1.0000e+00
       13  1    1    2    0    0 -3.7611954989e+01 +6.4176438342e+00 -1.2590325801e+02 1.3155792204e+02 1.0566000000e-01 0.0000e+00 -1.0000e+00
      -13  1    1    2    0    0 +2.1444822146e+01 -1.5595159878e+02 -1.3288042594e+02 2.0600485509e+02 1.0566000000e-01 0.0000e+00 1.0000e+00
       13  1    1    2    0    0 +1.7998607766e+01 +5.1856335168e+01 -8.9807876682e+01 1.0525443106e+02 1.0566000000e-01 0.0000e+00 -1.0000e+00
<mgrwt>
<rscale>  0 0.37107485E+03</rscale>
<asrwt>0</asrwt>
<pdfrwt beam="1">  1        2 0.13121411E+00 0.37107485E+03</pdfrwt>
<pdfrwt beam="2">  1       -2 0.16396930E-01 0.37107485E+03</pdfrwt>
<totfact> 0.96209651E+02</totfact>
</mgrwt>
</event>
<event>
 6      1 +1.8175624e-03 2.23104200e+02 7.81860800e-03 1.13159000e-01
        2 -1    0    0  501    0 +0.0000000000e+00 +0.0000000000e+00 +2.1616213066e+02 2.1616213068e+02 2.5500000000e-03 0.0000e+00 -1.0000e+00
       -2 -1    0    0    0  501 -0.0000000000e+00 -0.0000000000e+00 -5.7567281431e+01 5.7567281487e+01 2.5500000000e-03 0.0000e+00 1.0000e+00
      -13  1    1    2    0    0 -2.7792858308e+01 +2.5346945373e+01 +2.4727825147e+01 4.5015409731e+01 1.0566000000e-01 0.0000e+00 1.0000e+00
       13  1    1    2    0    0 -4.4491052099e-01 -3.5369916066e+01 -3.9827159504e+00 3.5596377600e+01 1.0566000000e-01 0.0000e+00 1.0000e+00
      -13  1    1    2    0    0 +1.5084189807e+01 +6.2372176927e+01 +2.6600087803e+01 6.9465078074e+01 1.0566000000e-01 0.0000e+00 -1.0000e+00
       13  1    1    2    0    0 +1.3153579022e+01 -5.2349206234e+01 +1.1124965223e+02 1.2365254676e+02 1.0566000000e-01 0.0000e+00 -1.0000e+00
<mgrwt>
<rscale>  0 0.22310416E+03</rscale>
<asrwt>0</asrwt>
<pdfrwt beam="1">  1        2 0.54040532E-01 0.22310416E+03</pdfrwt>
<pdfrwt beam="2">  1       -2 0.14391821E-01 0.22310416E+03</pdfrwt>
<totfact> 0.33367301E+03</totfact>
</mgrwt>
</event>
<event>
 6      1 +1.8175624e-03 4.36345800e+02 7.81860800e-03 1.03187400e-01
       -1 -1    0    0    0  501 -0.0000000000e+00 +0.0000000000e+00 +3.9121069690e+02 3.9121069693e+02 5.0400000000e-03 0.0000e+00 1.0000e+00
        1 -1    0    0  501    0 +0.0000000000e+00 -0.0000000000e+00 -1.2167204910e+02 1.2167204921e+02 5.0400000000e-03 0.0000e+00 -1.0000e+00
      -13  1    1    2    0    0 -7.5216406995e+01 -6.0137295047e+00 +1.3278649047e+02 1.5272830792e+02 1.0566000000e-01 0.0000e+00 1.0000e+00
       13  1    1    2    0    0 -3.0632328476e-02 -1.5338000505e+01 +8.1378423117e+01 8.2811316321e+01 1.0566000000e-01 0.0000e+00 -1.0000e+00
      -13  1    1    2    0    0 -2.8425167231e+01 -1.5064735809e+01 +1.3683029678e+02 1.4056129509e+02 1.0566000000e-01 0.0000e+00 1.0000e+00
       13  1    1    2    0    0 +1.0367220656e+02 +3.6416465819e+01 -8.1456562574e+01 1.3678182681e+02 1.0566000000e-01 0.0000e+00 -1.0000e+00
<mgrwt>
<rscale>  0 0.43634577E+03</rscale>
<asrwt>0</asrwt>
<pdfrwt beam="1">  1        1 0.30418012E-01 0.43634577E+03</pdfrwt>
<pdfrwt beam="2">  1       -1 0.97802674E-01 0.43634577E+03</pdfrwt>
<totfact> 0.15633741E+02</totfact>
</mgrwt>
</event>
<event>
 6      1 +1.8175624e-03 5.31879400e+02 7.81860800e-03 1.00577700e-01
        1 -1    0    0  501    0 +0.0000000000e+00 +0.0000000000e+00 +5.2454866585e+02 5.2454866587e+02 5.0400000000e-03 0.0000e+00 -1.0000e+00
       -1 -1    0    0    0  501 -0.0000000000e+00 -0.0000000000e+00 -1.3482816645e+02 1.3482816654e+02 5.0400000000e-03 0.0000e+00 1.0000e+00
      -13  1    1    2    0    0 -2.9122274514e+00 -1.8490393368e+02 +1.1592779286e+02 2.1825950170e+02 1.0566000000e-01 0.0000e+00 1.0000e+00
       13  1    1    2    0    0 -2.2061288499e+01 +1.2516565381e+02 +2.9029436839e+02 3.1689741688e+02 1.0566000000e-01 0.0000e+00 -1.0000e+00
      -13  1    1    2    0    0 +5.1436328616e+01 +1.5000792360e+01 +2.3623437390e+01 5.8555935917e+01 1.0566000000e-01 0.0000e+00 1.0000e+00
       13  1    1    2    0    0 -2.6462812666e+01 +4.4737487512e+01 -4.0125099240e+01 6.5663977919e+01 1.0566000000e-01 0.0000e+00 -1.0000e+00
<mgrwt>
<rscale>  0 0.53187944E+03</rscale>
<asrwt>0</asrwt>
<pdfrwt beam="1">  1        1 0.13113717E+00 0.53187944E+03</pdfrwt>
<pdfrwt beam="2">  1       -1 0.33707042E-01 0.53187944E+03</pdfrwt>
<totfact> 0.17065646E+02</totfact>
</mgrwt>
</event>
<event>
 6      1 +1.8175624e-03 3.33386600e+02 7.81860800e-03 1.06964800e-01
        1 -1    0    0  501    0 +0.0000000000e+00 +0.0000000000e+00 +5.4313882083e+02 5.4313882086e+02 5.0400000000e-03 0.0000e+00 -1.0000e+00
       -1 -1    0    0    0  501 -0.0000000000e+00 -0.0000000000e+00 -5.1159409115e+01 5.1159409363e+01 5.0400000000e-03 0.0000e+00 1.0000e+00
      -13  1    1    2    0    0 +4.7978629602e+01 +7.9641849929e+01 +3.8661714819e+02 3.9764004275e+02 1.0566000000e-01 0.0000e+00 -1.0000e+00
       13  1    1    2    0    0 -6.9953962251e-01 -3.5029721069e+01 -3.8930604660e+00 3.5252486405e+01 1.0566000000e-01 0.0000e+00 1.0000e+00
      -13  1    1    2    0    0 +4.4110270531e+00 -2.0494288808e+01 -1.4261114165e+01 2.5354754479e+01 1.0566000000e-01 0.0000e+00 1.0000e+00
       13  1    1    2    0    0 -5.1690117033e+01 -2.4117840052e+01 +1.2351643816e+02 1.3605094658e+02 1.0566000000e-01 0.0000e+00 -1.0000e+00
<mgrwt>
<rscale>  0 0.33338663E+03</rscale>
<asrwt>0</asrwt>
<pdfrwt beam="1">  1        1 0.13578470E+00 0.33338663E+03</pdfrwt>
<pdfrwt beam="2">  1       -1 0.12789853E-01 0.33338663E+03</pdfrwt>
<totfact> 0.81670485E+02</totfact>
</mgrwt>
</event>
<event>
 6      1 +1.8175624e-03 3.78663800e+02 7.81860800e-03 1.05142900e-01
       -2 -1    0    0    0  501 -0.0000000000e+00 +0.0000000000e+00 +7.5245440815e+02 7.5245440815e+02 2.5500000000e-03 0.0000e+00 1.0000e+00
        2 -1    0    0  501    0 +0.0000000000e+00 -0.0000000000e+00 -4.7639518377e+01 4.7639518446e+01 2.5500000000e-03 0.0000e+00 -1.0000e+00
      -13  1    1    2    0    0 +9.1617572260e+00 -5.2681582064e+01 +1.8265377159e+02 1.9031998930e+02 1.0566000000e-01 0.0000e+00 1.0000e+00
       13  1    1    2    0    0 +3.2968531004e+01 -1.3877475859e+01 +1.3256186570e+02 1.3730319652e+02 1.0566000000e-01 0.0000e+00 -1.0000e+00
      -13  1    1    2    0    0 -9.8039061693e+01 +1.2660836448e+02 +3.4196242139e+02 3.7759719859e+02 1.0566000000e-01 0.0000e+00 1.0000e+00
       13  1    1    2    0    0 +5.5908773463e+01 -6.0049306557e+01 +4.7636831081e+01 9.4873542190e+01 1.0566000000e-01 0.0000e+00 -1.0000e+00
<mgrwt>
<rscale>  0 0.37866379E+03</rscale>
<asrwt>0</asrwt>
<pdfrwt beam="1">  1        2 0.11909880E-01 0.37866379E+03</pdfrwt>
<pdfrwt beam="2">  1       -2 0.18811360E+00 0.37866379E+03</pdfrwt>
<totfact> 0.88104016E+01</totfact>
</mgrwt>
</event>
<event>
 6      1 +1.8175624e-03 3.50070700e+02 7.81860800e-03 1.06258600e-01
        2 -1    0    0  501    0 +0.0000000000e+00 +0.0000000000e+00 +1.9752591076e+02 1.9752591077e+02 2.5500000000e-03 0.0000e+00 -1.0000e+00
       -2 -1    0    0    0  501 -0.0000000000e+00 -0.0000000000e+00 -1.5510559030e+02 1.5510559032e+02 2.5500000000e-03 0.0000e+00 1.0000e+00
      -13  1    1    2    0    0 +3.6446441449e+00 -5.4733951732e+01 -7.9989384793e+01 9.6991761231e+01 1.0566000000e-01 0.0000e+00 1.0000e+00
       13  1    1    2    0    0 +5.5437280835e+01 +6.5630497231e+01 +9.5606897865e+01 1.2853538173e+02 1.0566000000e-01 0.0000e+00 -1.0000e+00
      -13  1    1    2    0    0 -6.2019927782e+01 -3.0854065868e+01 -2.3306733667e+01 7.3086659665e+01 1.0566000000e-01 0.0000e+00 1.0000e+00
       13  1    1    2    0    0 +2.9380028024e+00 +1.9957520369e+01 +5.0109541050e+01 5.4017698471e+01 1.0566000000e-01 0.0000e+00 -1.0000e+00
<mgrwt>
<rscale>  0 0.35007070E+03</rscale>
<asrwt>0</asrwt>
<pdfrwt beam="1">  1        2 0.49381477E-01 0.35007070E+03</pdfrwt>
<pdfrwt beam="2">  1       -2 0.38776398E-01 0.35007070E+03</pdfrwt>
<totfact> 0.64472731E+02</totfact>
</mgrwt>
</event>
<event>
 6      1 +1.8175624e-03 1.88927700e+02 7.81860800e-03 1.15943200e-01
        2 -1    0    0  501    0 +0.0000000000e+00 +0.0000000000e+00 +5.0457463757e+02 5.0457463758e+02 2.5500000000e-03 0.0000e+00 -1.0000e+00
       -2 -1    0    0    0  501 -0.0000000000e+00 -0.0000000000e+00 -1.7685023640e+01 1.7685023824e+01 2.5500000000e-03 0.0000e+00 1.0000e+00
      -13  1    1    2    0    0 -3.6409706585e+01 +3.4603419900e+00 +7.6210951495e+01 8.4532603131e+01 1.0566000000e-01 0.0000e+00 1.0000e+00
       13  1    1    2    0    0 +2.6933022302e+00 +3.2964777212e+01 +6.8589525874e+01 7.6147650241e+01 1.0566000000e-01 0.0000e+00 1.0000e+00
      -13  1    1    2    0    0 +4.3721461743e+01 -6.9692110794e+01 +2.4721275206e+02 2.6054311057e+02 1.0566000000e-01 0.0000e+00 -1.0000e+00
       13  1    1    2    0    0 -1.0005057388e+01 +3.3266991592e+01 +9.4876384503e+01 1.0103629746e+02 1.0566000000e-01 0.0000e+00 -1.0000e+00
<mgrwt>
<rscale>  0 0.18892765E+03</rscale>
<asrwt>0</asrwt>
<pdfrwt beam="1">  1        2 0.12614365E+00 0.18892765E+03</pdfrwt>
<pdfrwt beam="2">  1       -2 0.44212561E-02 0.18892765E+03</pdfrwt>
<totfact> 0.79594643E+03</totfact>
</mgrwt>
</event>
<event>
 6      1 +1.8175624e-03 2.79246400e+02 7.81860800e-03 1.09610100e-01
        1 -1    0    0  501    0 +0.0000000000e+00 +0.0000000000e+00 +1.5044879379e+02 1.5044879387e+02 5.0400000000e-03 0.0000e+00 -1.0000e+00
       -1 -1    0    0    0  501 -0.0000000000e+00 -0.0000000000e+00 -1.2957655679e+02 1.2957655689e+02 5.0400000000e-03 0.0000e+00 1.0000e+00
      -13  1    1    2    0    0 -5.1609756793e+01 -1.9376781038e+01 +4.5584781502e+01 7.1533279726e+01 1.0566000000e-01 0.0000e+00 -1.0000e+00
       13  1    1    2    0    0 +8.0136655560e+00 -5.6607798910e+01 -1.5684159094e+01 5.9284616416e+01 1.0566000000e-01 0.0000e+00 1.0000e+00
      -13  1    1    2    0    0 +1.4201825213e+01 +6.0608527829e+01 -6.1256133820e+01 8.7335047831e+01 1.0566000000e-01 0.0000e+00 1.0000e+00
       13  1    1    2    0    0 +2.9394266024e+01 +1.5376052118e+01 +5.2227748409e+01 6.1872406788e+01 1.0566000000e-01 0.0000e+00 -1.0000e+00
<mgrwt>
<rscale>  0 0.27924639E+03</rscale>
<asrwt>0</asrwt>
<pdfrwt beam="1">  1        1 0.37612198E-01 0.27924639E+03</pdfrwt>
<pdfrwt beam="2">  1       -1 0.32394139E-01 0.27924639E+03</pdfrwt>
<totfact> 0.10181584E+03</totfact>
</mgrwt>
</event>
<event>
 6      1 +1.8175624e-03 1.55479700e+02 7.81860800e-03 1.19389700e-01
       -2 -1    0    0    0  501 -0.0000000000e+00 +0.0000000000e+00 +1.6059666013e+02 1.6059666015e+02 2.5500000000e-03 0.0000e+00 -1.0000e+00
        2 -1    0    0  501    0 +0.0000000000e+00 -0.0000000000e+00 -3.7631457630e+01 3.7631457716e+01 2.5500000000e-03 0.0000e+00 1.0000e+00
      -13  1    1    2    0    0 -2.6897736428e+01 +1.4874424753e+01 +2.4591397035e+01 3.9363494622e+01 1.0566000000e-01 0.0000e+00 -1.0000e+00
       13  1    1    2    0    0 -2.3658326977e+01 -2.0323449460e+01 -3.5191421340e+00 3.1387171881e+01 1.0566000000e-01 0.0000e+00 1.0000e+00
      -13  1    1    2    0    0 +2.9558885694e+01 +1.9399577983e+01 +9.4965302713e+01 1.0133356420e+02 1.0566000000e-01 0.0000e+00 -1.0000e+00
       13  1    1    2    0    0 +2.0997177711e+01 -1.3950553276e+01 +6.9276448882e+00 2.6143887168e+01 1.0566000000e-01 0.0000e+00 1.0000e+00
<mgrwt>
<rscale>  0 0.15547973E+03</rscale>
<asrwt>0</asrwt>
<pdfrwt beam="1">  1        2 0.94078645E-02 0.15547973E+03</pdfrwt>
<pdfrwt beam="2">  1       -2 0.40149165E-01 0.15547973E+03</pdfrwt>
<totfact> 0.39430002E+03</totfact>
</mgrwt>
</event>
<event>
 6      1 +1.8175624e-03 1.79914800e+02 7.81860800e-03 1.16788500e-01
        2 -1    0    0  501    0 +0.0000000000e+00 +0.0000000000e+00 +8.0537106760e+01 8.0537106800e+01 2.5500000000e-03 0.0000e+00 -1.0000e+00
       -2 -1    0    0    0  501 -0.0000000000e+00 -0.0000000000e+00 -1.0047961070e+02 1.0047961073e+02 2.5500000000e-03 0.0000e+00 1.0000e+00
      -13  1    1    2    0    0 -4.2866530237e+01 -3.1924953402e+01 -2.5977082856e+01 5.9426947272e+01 1.0566000000e-01 0.0000e+00 1.0000e+00
       13  1    1    2    0    0 +1.0407473374e+01 -8.5903743652e+00 +3.7040979706e+01 3.9422777368e+01 1.0566000000e-01 0.0000e+00 -1.0000e+00
      -13  1    1    2    0    0 +1.7212997543e+01 -6.5931668010e+00 +7.0317536187e+00 1.9728503640e+01 1.0566000000e-01 0.0000e+00 1.0000e+00
       13  1    1    2    0    0 +1.5246059321e+01 +4.7108494568e+01 -3.8038154410e+01 6.2438489253e+01 1.0566000000e-01 0.0000e+00 -1.0000e+00
<mgrwt>
<rscale>  0 0.17991484E+03</rscale>
<asrwt>0</asrwt>
<pdfrwt beam="1">  1        2 0.20134277E-01 0.17991484E+03</pdfrwt>
<pdfrwt beam="2">  1       -2 0.25119903E-01 0.17991484E+03</pdfrwt>
<totfact> 0.37842572E+03</totfact>
</mgrwt>
</event>
<event>
 6      1 +1.8175624e-03 2.19131000e+02 7.81860800e-03 1.13453300e-01
       -1 -1    0    0    0  501 -0.0000000000e+00 +0.0000000000e+00 +4.8369675391e+01 4.8369675653e+01 5.0400000000e-03 0.0000e+00 1.0000e+00
        1 -1    0    0  501    0 +0.0000000000e+00 -0.0000000000e+00 -2.4818434305e+02 2.4818434311e+02 5.0400000000e-03 0.0000e+00 -1.0000e+00
      -13  1    1    2    0    0 -2.4774593277e+01 -1.7123168168e+01 -2.3700816945e+01 3.8323925269e+01 1.0566000000e-01 0.0000e+00 1.0000e+00
       13  1    1    2    0    0 -4.1857113073e+01 +3.4347574376e+00 -1.3034240397e+02 1.3694147988e+02 1.0566000000e-01 0.0000e+00 -1.0000e+00
      -13  1    1    2    0    0 -2.0563618317e+01 -6.3639914327e+00 -1.8147664405e+00 2.1602484267e+01 1.0566000000e-01 0.0000e+00 -1.0000e+00
       13  1    1    2    0    0 +8.7195324668e+01 +2.0052402163e+01 -4.3956680306e+01 9.9686129346e+01 1.0566000000e-01 0.0000e+00 1.0000e+00
<mgrwt>
<rscale>  0 0.21913098E+03</rscale>
<asrwt>0</asrwt>
<pdfrwt beam="1">  1        1 0.62046082E-01 0.21913098E+03</pdfrwt>
<pdfrwt beam="2">  1       -1 0.12092420E-01 0.21913098E+03</pdfrwt>
<totfact> 0.26871516E+03</totfact>
</mgrwt>
</event>
<event>
 6      1 +1.8175624e-03 3.12441300e+02 7.81860800e-03 1.07918200e-01
       -2 -1    0    0    0  501 -0.0000000000e+00 +0.0000000000e+00 +3.0957228449e+02 3.0957228450e+02 2.5500000000e-03 0.0000e+00 1.0000e+00
        2 -1    0    0  501    0 +0.0000000000e+00 -0.0000000000e+00 -7.8834237815e+01 7.8834237856e+01 2.5500000000e-03 0.0000e+00 -1.0000e+00
      -13  1    1    2    0    0 +1.5473855395e+01 -1.9081663922e+01 +2.9047694760e+01 3.8043788373e+01 1.0566000000e-01 0.0000e+00 1.0000e+00
       13  1    1    2    0    0 +4.8110317499e+01 +2.9459446780e+01 -1.4686652925e-02 5.6413411829e+01 1.0566000000e-01 0.0000e+00 -1.0000e+00
      -13  1    1    2    0    0 -2.5444731715e+01 -9.1270194076e+01 +1.7764911351e+02 2.0133777935e+02 1.0566000000e-01 0.0000e+00 1.0000e+00
       13  1    1    2    0    0 -3.8139441179e+01 +8.0892411218e+01 +2.4055925056e+01 9.2611542803e+01 1.0566000000e-01 0.0000e+00 -1.0000e+00
<mgrwt>
<rscale>  0 0.31244132E+03</rscale>
<asrwt>0</asrwt>
<pdfrwt beam="1">  1        2 0.19708560E-01 0.31244132E+03</pdfrwt>
<pdfrwt beam="2">  1       -2 0.77393070E-01 0.31244132E+03</pdfrwt>
<totfact> 0.43424935E+02</totfact>
</mgrwt>
</event>
<event>
 7      1 +1.8175624e-03 9.50926300e+01 7.81860800e-03 1.29096800e-01
       -2 -1    0    0    0  501 -0.0000000000e+00 +0.0000000000e+00 +1.0092760867e+02 1.0092760870e+02 2.5500000000e-03 0.0000e+00 1.0000e+00
        2 -1    0    0  501    0 +0.0000000000e+00 -0.0000000000e+00 -2.2398749718e+01 2.2398749863e+01 2.5500000000e-03 0.0000e+00 -1.0000e+00
       23  2    1    2    0    0 -1.8873791419e-15 +3.5527136788e-15 +7.8528858950e+01 1.2332635856e+02 9.5092633934e+01 0.0000e+00 0.0000e+00
      -13  1    3    3    0    0 +2.8028528037e+01 -9.4257094011e+00 +3.3676903890e+01 4.4817266776e+01 1.0566000000e-01 0.0000e+00 1.0000e+00
       13  1    3    3    0    0 -2.2085168059e+01 +9.6234235558e+00 +2.0620559494e+00 2.4179085341e+01 1.0566000000e-01 0.0000e+00 -1.0000e+00
      -13  1    3    3    0    0 -7.1895989536e-01 -1.6163069427e+01 +2.5680766102e+01 3.0352506128e+01 1.0566000000e-01 0.0000e+00 1.0000e+00
       13  1    3    3    0    0 -5.2244000821e+00 +1.5965355272e+01 +1.7109133009e+01 2.3977500319e+01 1.0566000000e-01 0.0000e+00 -1.0000e+00
<mgrwt>
<rscale>  0 0.95092634E+02</rscale>
<asrwt>0</asrwt>
<pdfrwt beam="1">  1        2 0.55996875E-02 0.95092634E+02</pdfrwt>
<pdfrwt beam="2">  1       -2 0.25231902E-01 0.95092634E+02</pdfrwt>
<totfact> 0.16874092E+04</totfact>
</mgrwt>
</event>
<event>
 6      1 +1.8175624e-03 5.02656500e+02 7.81860800e-03 1.01308800e-01
       -2 -1    0    0    0  501 -0.0000000000e+00 +0.0000000000e+00 +1.0145324085e+02 1.0145324088e+02 2.5500000000e-03 0.0000e+00 1.0000e+00
        2 -1    0    0  501    0 +0.0000000000e+00 -0.0000000000e+00 -6.2261084547e+02 6.2261084547e+02 2.5500000000e-03 0.0000e+00 -1.0000e+00
      -13  1    1    2    0    0 +4.9316488617e+00 +1.9438240752e+01 -2.3086383081e+01 3.0580363174e+01 1.0566000000e-01 0.0000e+00 -1.0000e+00
       13  1    1    2    0    0 +2.1429698265e+02 +4.4205428368e+01 -2.6035477703e+02 3.4009107274e+02 1.0566000000e-01 0.0000e+00 -1.0000e+00
      -13  1    1    2    0    0 -8.1069947508e+01 +4.5110876897e+00 -1.6315584916e+02 1.8224304809e+02 1.0566000000e-01 0.0000e+00 1.0000e+00
       13  1    1    2    0    0 -1.3815868400e+02 -6.8154756810e+01 -7.4560595357e+01 1.7114960235e+02 1.0566000000e-01 0.0000e+00 1.0000e+00
<mgrwt>
<rscale>  0 0.50265650E+03</rscale>
<asrwt>0</asrwt>
<pdfrwt beam="1">  1        2 0.15565270E+00 0.50265650E+03</pdfrwt>
<pdfrwt beam="2">  1       -2 0.25363312E-01 0.50265650E+03</pdfrwt>
<totfact> 0.35308449E+02</totfact>
</mgrwt>
</event>
<event>
 6      1 +1.8175624e-03 4.10212800e+02 7.81860800e-03 1.04030000e-01
       -2 -1    0    0    0  501 -0.0000000000e+00 +0.0000000000e+00 +9.9881417853e+01 9.9881417885e+01 2.5500000000e-03 0.0000e+00 1.0000e+00
        2 -1    0    0  501    0 +0.0000000000e+00 -0.0000000000e+00 -4.2118583829e+02 4.2118583830e+02 2.5500000000e-03 0.0000e+00 -1.0000e+00
      -13  1    1    2    0    0 -3.6850466853e+01 +2.0808798207e+01 -5.8764494727e+01 7.2417125010e+01 1.0566000000e-01 0.0000e+00 -1.0000e+00
       13  1    1    2    0    0 +8.8679305965e+01 +1.1245291079e+02 -2.1948306380e+02 2.6207346854e+02 1.0566000000e-01 0.0000e+00 -1.0000e+00
      -13  1    1    2    0    0 -8.5322459410e+01 -9.3148329218e+01 -1.4842043301e+01 1.2718817056e+02 1.0566000000e-01 0.0000e+00 1.0000e+00
       13  1    1    2    0    0 +3.3493620298e+01 -4.0113379783e+01 -2.8214818610e+01 5.9388492080e+01 1.0566000000e-01 0.0000e+00 1.0000e+00
<mgrwt>
<rscale>  0 0.41021282E+03</rscale>
<asrwt>0</asrwt>
<pdfrwt beam="1">  1        2 0.10529645E+00 0.41021282E+03</pdfrwt>
<pdfrwt beam="2">  1       -2 0.24970356E-01 0.41021282E+03</pdfrwt>
<totfact> 0.61372974E+02</totfact>
</mgrwt>
</event>
<event>
 6      1 +1.8175624e-03 4.95425800e+02 7.81860800e-03 1.01498000e-01
        2 -1    0    0  501    0 +0.0000000000e+00 +0.0000000000e+00 +8.1642267532e+02 8.1642267532e+02 2.5500000000e-03 0.0000e+00 1.0000e+00
       -2 -1    0    0    0  501 -0.0000000000e+00 -0.0000000000e+00 -7.5159220125e+01 7.5159220168e+01 2.5500000000e-03 0.0000e+00 -1.0000e+00
      -13  1    1    2    0    0 -1.0261782201e+01 +1.5453066577e+02 +5.0470454328e+02 5.2793154671e+02 1.0566000000e-01 0.0000e+00 1.0000e+00
       13  1    1    2    0    0 +6.1619090539e+01 -7.6392162702e+01 +1.3698293029e+02 1.6851412165e+02 1.0566000000e-01 0.0000e+00 1.0000e+00
      -13  1    1    2    0    0 -3.9227302962e+01 -6.5070621094e+01 +1.3532005901e+02 1.5519180572e+02 1.0566000000e-01 0.0000e+00 -1.0000e+00
       13  1    1    2    0    0 -1.2130005376e+01 -1.3067881975e+01 -3.5744077387e+01 3.9944421413e+01 1.0566000000e-01 0.0000e+00 -1.0000e+00
<mgrwt>
<rscale>  0 0.49542584E+03</rscale>
<asrwt>0</asrwt>
<pdfrwt beam="1">  1        2 0.20410567E+00 0.49542584E+03</pdfrwt>
<pdfrwt beam="2">  1       -2 0.18789805E-01 0.49542584E+03</pdfrwt>
<totfact> 0.38999552E+02</totfact>
</mgrwt>
</event>
<event>
 6      1 +1.8175624e-03 2.02454300e+02 7.81860800e-03 1.14768500e-01
        2 -1    0    0  501    0 +0.0000000000e+00 +0.0000000000e+00 +2.4455923807e+02 2.4455923809e+02 2.5500000000e-03 0.0000e+00 1.0000e+00
       -2 -1    0    0    0  501 -0.0000000000e+00 -0.0000000000e+00 -4.1899590298e+01 4.1899590376e+01 2.5500000000e-03 0.0000e+00 -1.0000e+00
      -13  1    1    2    0    0 +3.9721469348e+01 +6.8714072681e+00 -2.0018994872e+00 4.0361245405e+01 1.0566000000e-01 0.0000e+00 -1.0000e+00
       13  1    1    2    0    0 -2.0994938484e+01 +2.1891683059e+01 +2.0856189335e+01 3.6810664579e+01 1.0566000000e-01 0.0000e+00 1.0000e+00
      -13  1    1    2    0    0 +2.8868546766e+00 +1.7587175360e+01 -6.8829291123e-01 1.7836131258e+01 1.0566000000e-01 0.0000e+00 -1.0000e+00
       13  1    1    2    0    0 -2.1613385541e+01 -4.6350265687e+01 +1.8449365084e+02 1.9145078722e+02 1.0566000000e-01 0.0000e+00 1.0000e+00
<mgrwt>
<rscale>  0 0.20245426E+03</rscale>
<asrwt>0</asrwt>
<pdfrwt beam="1">  1        2 0.61139808E-01 0.20245426E+03</pdfrwt>
<pdfrwt beam="2">  1       -2 0.10474898E-01 0.20245426E+03</pdfrwt>
<totfact> 0.48617348E+03</totfact>
</mgrwt>
</event>
<event>
 6      1 +1.8175624e-03 4.32749200e+02 7.81860800e-03 1.03299500e-01
       -2 -1    0    0    0  501 -0.0000000000e+00 +0.0000000000e+00 +1.2321291274e+02 1.2321291276e+02 2.5500000000e-03 0.0000e+00 1.0000e+00
        2 -1    0    0  501    0 +0.0000000000e+00 -0.0000000000e+00 -3.7997615321e+02 3.7997615322e+02 2.5500000000e-03 0.0000e+00 -1.0000e+00
      -13  1    1    2    0    0 +5.4366044443e+01 -6.4580284556e+01 -1.3723943812e+02 1.6112403447e+02 1.0566000000e-01 0.0000e+00 1.0000e+00
       13  1    1    2    0    0 -9.5470973845e+00 -1.2280726095e+01 +1.9358854183e+01 2.4834244526e+01 1.0566000000e-01 0.0000e+00 -1.0000e+00
      -13  1    1    2    0    0 +7.8554808336e+01 +3.0216091159e+01 +4.1443130472e+01 9.3815853165e+01 1.0566000000e-01 0.0000e+00 1.0000e+00
       13  1    1    2    0    0 -1.2337375539e+02 +4.6644919492e+01 -1.8032578700e+02 2.2341493383e+02 1.0566000000e-01 0.0000e+00 -1.0000e+00
<mgrwt>
<rscale>  0 0.43274921E+03</rscale>
<asrwt>0</asrwt>
<pdfrwt beam="1">  1        2 0.94994036E-01 0.43274921E+03</pdfrwt>
<pdfrwt beam="2">  1       -2 0.30803229E-01 0.43274921E+03</pdfrwt>
<totfact> 0.47455137E+02</totfact>
</mgrwt>
</event>
<event>
 6      1 +1.8175624e-03 4.75387400e+02 7.81860800e-03 1.02041100e-01
       -2 -1    0    0    0  501 -0.0000000000e+00 +0.0000000000e+00 +7.3278179194e+01 7.3278179239e+01 2.5500000000e-03 0.0000e+00 -1.0000e+00
        2 -1    0    0  501    0 +0.0000000000e+00 -0.0000000000e+00 -7.7101122004e+02 7.7101122005e+02 2.5500000000e-03 0.0000e+00 1.0000e+00
      -13  1    1    2    0    0 +8.3974185141e+01 -2.3759866329e+01 -1.5270450181e+02 1.7588311760e+02 1.0566000000e-01 0.0000e+00 -1.0000e+00
       13  1    1    2    0    0 -3.3089615692e-01 +3.5836956817e+01 -1.3029462026e+01 3.8133646704e+01 1.0566000000e-01 0.0000e+00 1.0000e+00
      -13  1    1    2    0    0 -1.3719864375e+02 -1.2212683314e+02 -1.7825923968e+02 2.5595858828e+02 1.0566000000e-01 0.0000e+00 -1.0000e+00
       13  1    1    2    0    0 +5.3555354767e+01 +1.1004974265e+02 -3.5373983733e+02 3.7431404670e+02 1.0566000000e-01 0.0000e+00 1.0000e+00
<mgrwt>
<rscale>  0 0.47538741E+03</rscale>
<asrwt>0</asrwt>
<pdfrwt beam="1">  1        2 0.19275278E+00 0.47538741E+03</pdfrwt>
<pdfrwt beam="2">  1       -2 0.18319547E-01 0.47538741E+03</pdfrwt>
<totfact> 0.44944617E+02</totfact>
</mgrwt>
</event>
<event>
 6      1 +1.8175624e-03 3.01271200e+02 7.81860800e-03 1.08460700e-01
       -2 -1    0    0    0  501 -0.0000000000e+00 +0.0000000000e+00 +5.6312250142e+01 5.6312250200e+01 2.5500000000e-03 0.0000e+00 1.0000e+00
        2 -1    0    0  501    0 +0.0000000000e+00 -0.0000000000e+00 -4.0295103088e+02 4.0295103089e+02 2.5500000000e-03 0.0000e+00 -1.0000e+00
      -13  1    1    2    0    0 -9.3086981277e+01 +1.3604835627e+01 -9.4541888692e+01 1.3337337634e+02 1.0566000000e-01 0.0000e+00 1.0000e+00
       13  1    1    2    0    0 +2.0626586243e+01 -4.1253389105e+01 -1.6216460986e+01 4.8890519977e+01 1.0566000000e-01 0.0000e+00 1.0000e+00
      -13  1    1    2    0    0 +2.7256666309e+01 +4.4393643359e+01 -1.9997606339e+01 5.5799971795e+01 1.0566000000e-01 0.0000e+00 -1.0000e+00
       13  1    1    2    0    0 +4.5203728725e+01 -1.6745089881e+01 -2.1588282473e+02 2.2119941298e+02 1.0566000000e-01 0.0000e+00 -1.0000e+00
<mgrwt>
<rscale>  0 0.30127117E+03</rscale>
<asrwt>0</asrwt>
<pdfrwt beam="1">  1        2 0.10073775E+00 0.30127117E+03</pdfrwt>
<pdfrwt beam="2">  1       -2 0.14078064E-01 0.30127117E+03</pdfrwt>
<totfact> 0.17306632E+03</totfact>
</mgrwt>
</event>
<event>
 6      1 +1.8175624e-03 5.54914800e+02 7.81860800e-03 1.00036300e-01
        2 -1    0    0  501    0 +0.0000000000e+00 +0.0000000000e+00 +3.5560341288e+02 3.5560341289e+02 2.5500000000e-03 0.0000e+00 1.0000e+00
       -2 -1    0    0    0  501 -0.0000000000e+00 -0.0000000000e+00 -2.1648447616e+02 2.1648447618e+02 2.5500000000e-03 0.0000e+00 -1.0000e+00
      -13  1    1    2    0    0 -7.7282750825e+00 +2.5093895642e+01 -1.0245274517e+02 1.0576391630e+02 1.0566000000e-01 0.0000e+00 -1.0000e+00
       13  1    1    2    0    0 +6.4852372962e+00 +1.1922794814e+02 +2.1007842420e+02 2.4164088520e+02 1.0566000000e-01 0.0000e+00 1.0000e+00
      -13  1    1    2    0    0 -1.5730390507e+01 -1.8117336220e+02 +2.7333890427e+01 1.8389775715e+02 1.0566000000e-01 0.0000e+00 -1.0000e+00
       13  1    1    2    0    0 +1.6973428293e+01 +3.6851518415e+01 +4.1593672567e+00 4.0785330421e+01 1.0566000000e-01 0.0000e+00 1.0000e+00
<mgrwt>
<rscale>  0 0.55491484E+03</rscale>
<asrwt>0</asrwt>
<pdfrwt beam="1">  1        2 0.88900853E-01 0.55491484E+03</pdfrwt>
<pdfrwt beam="2">  1       -2 0.54121119E-01 0.55491484E+03</pdfrwt>
<totfact> 0.17027700E+02</totfact>
</mgrwt>
</event>
<event>
 6      1 +1.8175624e-03 1.62714000e+02 7.81860800e-03 1.18566600e-01
       -1 -1    0    0    0  501 -0.0000000000e+00 +0.0000000000e+00 +5.3538010055e+01 5.3538010292e+01 5.0400000000e-03 0.0000e+00 1.0000e+00
        1 -1    0    0  501    0 +0.0000000000e+00 -0.0000000000e+00 -1.2363101685e+02 1.2363101695e+02 5.0400000000e-03 0.0000e+00 -1.0000e+00
      -13  1    1    2    0    0 -2.3887859301e+00 +2.5250854530e+01 -2.9434712492e+01 3.8855185191e+01 1.0566000000e-01 0.0000e+00 1.0000e+00
       13  1    1    2    0    0 +8.2038150366e+00 -5.0094426155e+01 +1.5032916645e+01 5.2941041356e+01 1.0566000000e-01 0.0000e+00 1.0000e+00
      -13  1    1    2    0    0 -3.1636368913e+01 +1.9781419433e+01 -4.0160427819e+01 5.4818204270e+01 1.0566000000e-01 0.0000e+00 -1.0000e+00
       13  1    1    2    0    0 +2.5821339806e+01 +5.0621521923e+00 -1.5530783128e+01 3.0554596427e+01 1.0566000000e-01 0.0000e+00 -1.0000e+00
<mgrwt>
<rscale>  0 0.16271397E+03</rscale>
<asrwt>0</asrwt>
<pdfrwt beam="1">  1        1 0.30907754E-01 0.16271397E+03</pdfrwt>
<pdfrwt beam="2">  1       -1 0.13384503E-01 0.16271397E+03</pdfrwt>
<totfact> 0.54265961E+03</totfact>
</mgrwt>
</event>
<event>
 6      1 +1.8175624e-03 1.87053000e+02 7.81860800e-03 1.16114600e-01
       -1 -1    0    0    0  501 -0.0000000000e+00 +0.0000000000e+00 +9.4908094870e+01 9.4908095004e+01 5.0400000000e-03 0.0000e+00 1.0000e+00
        1 -1    0    0  501    0 +0.0000000000e+00 -0.0000000000e+00 -9.2165059130e+01 9.2165059268e+01 5.0400000000e-03 0.0000e+00 -1.0000e+00
      -13  1    1    2    0    0 -1.5174478625e+01 -7.5351167276e+00 +2.4266133662e+01 2.9595594142e+01 1.0566000000e-01 0.0000e+00 1.0000e+00
       13  1    1    2    0    0 +1.3586229637e+00 -1.4548943252e+01 -2.4430682375e+00 1.4815443043e+01 1.0566000000e-01 0.0000e+00 -1.0000e+00
      -13  1    1    2    0    0 -5.7408860413e+00 +1.5460119975e+01 +5.9329700862e+01 6.1579198197e+01 1.0566000000e-01 0.0000e+00 1.0000e+00
       13  1    1    2    0    0 +1.9556741703e+01 +6.6239400054e+00 -7.8409730547e+01 8.1082918890e+01 1.0566000000e-01 0.0000e+00 -1.0000e+00
<mgrwt>
<rscale>  0 0.18705304E+03</rscale>
<asrwt>0</asrwt>
<pdfrwt beam="1">  1        1 0.23041265E-01 0.18705304E+03</pdfrwt>
<pdfrwt beam="2">  1       -1 0.23727024E-01 0.18705304E+03</pdfrwt>
<totfact> 0.31650828E+03</totfact>
</mgrwt>
</event>
<event>
 6      1 +1.8175624e-03 4.22425500e+02 7.81860800e-03 1.03628000e-01
        2 -1    0    0  501    0 +0.0000000000e+00 +0.0000000000e+00 +7.9671462327e+02 7.9671462327e+02 2.5500000000e-03 0.0000e+00 -1.0000e+00
       -2 -1    0    0    0  501 -0.0000000000e+00 -0.0000000000e+00 -5.5993495008e+01 5.5993495066e+01 2.5500000000e-03 0.0000e+00 1.0000e+00
      -13  1    1    2    0    0 +1.1469157876e+02 +8.4328518881e+01 +1.1261333506e+02 1.8151372326e+02 1.0566000000e-01 0.0000e+00 1.0000e+00
       13  1    1    2    0    0 -9.7857898407e+01 +5.1989541232e+00 +1.7846607212e+02 2.0360095153e+02 1.0566000000e-01 0.0000e+00 -1.0000e+00
      -13  1    1    2    0    0 +2.3616392177e+01 +5.6398802011e+00 +6.8628635989e+01 7.2797273781e+01 1.0566000000e-01 0.0000e+00 1.0000e+00
       13  1    1    2    0    0 -4.0450072528e+01 -9.5167353205e+01 +3.8101308509e+02 3.9479616976e+02 1.0566000000e-01 0.0000e+00 -1.0000e+00
<mgrwt>
<rscale>  0 0.42242555E+03</rscale>
<asrwt>0</asrwt>
<pdfrwt beam="1">  1        2 0.19917866E+00 0.42242555E+03</pdfrwt>
<pdfrwt beam="2">  1       -2 0.13998374E-01 0.42242555E+03</pdfrwt>
<totfact> 0.67261902E+02</totfact>
</mgrwt>
</event>
<event>
 6      1 +1.8175624e-03 3.54934800e+02 7.81860800e-03 1.06060800e-01
        2 -1    0    0  501    0 +0.0000000000e+00 +0.0000000000e+00 +1.4637987578e+03 1.4637987578e+03 2.5500000000e-03 0.0000e+00 -1.0000e+00
       -2 -1    0    0    0  501 -0.0000000000e+00 -0.0000000000e+00 -2.1515710671e+01 2.1515710823e+01 2.5500000000e-03 0.0000e+00 1.0000e+00
      -13  1    1    2    0    0 -1.4627637223e+01 +5.2592077740e+01 +2.2664901067e+02 2.3313017739e+02 1.0566000000e-01 0.0000e+00 1.0000e+00
       13  1    1    2    0    0 +1.3422885116e+02 -5.0521985307e+01 +6.9692712283e+02 7.1153164454e+02 1.0566000000e-01 0.0000e+00 -1.0000e+00
      -13  1    1    2    0    0 -9.5737708937e+01 +5.6525140610e+00 +5.0063458250e+02 5.0973783084e+02 1.0566000000e-01 0.0000e+00 -1.0000e+00
       13  1    1    2    0    0 -2.3863505000e+01 -7.7226064939e+00 +1.8072331105e+01 3.0914815826e+01 1.0566000000e-01 0.0000e+00 1.0000e+00
<mgrwt>
<rscale>  0 0.35493476E+03</rscale>
<asrwt>0</asrwt>
<pdfrwt beam="1">  1        2 0.36594966E+00 0.35493476E+03</pdfrwt>
<pdfrwt beam="2">  1       -2 0.53789281E-02 0.35493476E+03</pdfrwt>
<totfact> 0.80781797E+02</totfact>
</mgrwt>
</event>
<event>
 6      1 +1.8175624e-03 2.57735400e+02 7.81860800e-03 1.10851200e-01
        2 -1    0    0  501    0 +0.0000000000e+00 +0.0000000000e+00 +3.7434146752e+01 3.7434146839e+01 2.5500000000e-03 0.0000e+00 -1.0000e+00
       -2 -1    0    0    0  501 -0.0000000000e+00 -0.0000000000e+00 -4.4362939454e+02 4.4362939454e+02 2.5500000000e-03 0.0000e+00 1.0000e+00
      -13  1    1    2    0    0 +2.5385242599e+01 +6.1435530968e+01 -2.5576297830e+02 2.6426018853e+02 1.0566000000e-01 0.0000e+00 1.0000e+00
       13  1    1    2    0    0 +2.1105737592e+01 -1.5900498442e+01 -9.4678764254e-01 2.6442117557e+01 1.0566000000e-01 0.0000e+00 -1.0000e+00
      -13  1    1    2    0    0 -6.6632901409e+01 -5.8068856221e+01 -8.9187144244e+01 1.2556390196e+02 1.0566000000e-01 0.0000e+00 1.0000e+00
       13  1    1    2    0    0 +2.0141921219e+01 +1.2533823696e+01 -6.0298337598e+01 6.4797333340e+01 1.0566000000e-01 0.0000e+00 -1.0000e+00
<mgrwt>
<rscale>  0 0.25773543E+03</rscale>
<asrwt>0</asrwt>
<pdfrwt beam="1">  1        2 0.93585381E-02 0.25773543E+03</pdfrwt>
<pdfrwt beam="2">  1       -2 0.11090733E+00 0.25773543E+03</pdfrwt>
<totfact> 0.46735586E+02</totfact>
</mgrwt>
</event>
<event>
 6      1 +1.8175624e-03 1.86670000e+02 7.81860800e-03 1.16150000e-01
       -2 -1    0    0    0  501 -0.0000000000e+00 +0.0000000000e+00 +1.9288102700e+01 1.9288102869e+01 2.5500000000e-03 0.0000e+00 1.0000e+00
        2 -1    0    0  501    0 +0.0000000000e+00 -0.0000000000e+00 -4.5164731484e+02 4.5164731485e+02 2.5500000000e-03 0.0000e+00 -1.0000e+00
      -13  1    1    2    0    0 -1.6009801643e+01 +4.5174597295e+00 -1.3836613128e+01 2.1637564973e+01 1.0566000000e-01 0.0000e+00 1.0000e+00
       13  1    1    2    0    0 +2.1260656526e+01 +3.8507114058e+01 -2.2480604518e+02 2.2906894696e+02 1.0566000000e-01 0.0000e+00 -1.0000e+00
      -13  1    1    2    0    0 +4.3261602404e+01 -3.2489899081e+01 -8.5676082084e+01 1.0132897902e+02 1.0566000000e-01 0.0000e+00 1.0000e+00
       13  1    1    2    0    0 -4.8512457287e+01 -1.0534674706e+01 -1.0804047175e+02 1.1889992676e+02 1.0566000000e-01 0.0000e+00 -1.0000e+00
<mgrwt>
<rscale>  0 0.18666997E+03</rscale>
<asrwt>0</asrwt>
<pdfrwt beam="1">  1        2 0.11291179E+00 0.18666997E+03</pdfrwt>
<pdfrwt beam="2">  1       -2 0.48220272E-02 0.18666997E+03</pdfrwt>
<totfact> 0.80129940E+03</totfact>
</mgrwt>
</event>
<event>
 6      1 +1.8175624e-03 5.60460300e+02 7.81860800e-03 9.99101400e-02
        1 -1    0    0  501    0 +0.0000000000e+00 +0.0000000000e+00 +7.0566714868e+02 7.0566714870e+02 5.0400000000e-03 0.0000e+00 1.0000e+00
       -1 -1    0    0    0  501 -0.0000000000e+00 -0.0000000000e+00 -1.1128324990e+02 1.1128325001e+02 5.0400000000e-03 0.0000e+00 -1.0000e+00
      -13  1    1    2    0    0 -1.6452769866e+02 +1.0316611613e+02 +4.1184369267e+02 4.5533268003e+02 1.0566000000e-01 0.0000e+00 1.0000e+00
       13  1    1    2    0    0 +7.9752401276e+01 -6.6120539606e+01 +1.9206513607e+02 2.1822327769e+02 1.0566000000e-01 0.0000e+00 -1.0000e+00
      -13  1    1    2    0    0 +2.5159324008e+01 +3.8211336303e+01 -1.2197254010e+01 4.7348516091e+01 1.0566000000e-01 0.0000e+00 -1.0000e+00
       13  1    1    2    0    0 +5.9615973380e+01 -7.5256912829e+01 +2.6723240516e+00 9.6045924903e+01 1.0566000000e-01 0.0000e+00 1.0000e+00
<mgrwt>
<rscale>  0 0.56046029E+03</rscale>
<asrwt>0</asrwt>
<pdfrwt beam="1">  1        1 0.17641679E+00 0.56046029E+03</pdfrwt>
<pdfrwt beam="2">  1       -1 0.27820813E-01 0.56046029E+03</pdfrwt>
<totfact> 0.14083934E+02</totfact>
</mgrwt>
</event>
<event>
 6      1 +1.8175624e-03 4.00552900e+02 7.81860800e-03 1.04358800e-01
       -2 -1    0    0    0  501 -0.0000000000e+00 +0.0000000000e+00 +1.3196472154e+02 1.3196472157e+02 2.5500000000e-03 0.0000e+00 1.0000e+00
        2 -1    0    0  501    0 +0.0000000000e+00 -0.0000000000e+00 -3.0394978669e+02 3.0394978670e+02 2.5500000000e-03 0.0000e+00 -1.0000e+00
      -13  1    1    2    0    0 -4.8124136041e+01 -2.6406015259e+01 -5.3413903707e+01 7.6591555571e+01 1.0566000000e-01 0.0000e+00 1.0000e+00
       13  1    1    2    0    0 +6.2992883703e+01 +4.6407308863e+01 -1.5973194487e+02 1.7786524981e+02 1.0566000000e-01 0.0000e+00 -1.0000e+00
      -13  1    1    2    0    0 -1.4997099064e+01 -8.1483792334e+01 +7.4583666781e+01 1.1147760272e+02 1.0566000000e-01 0.0000e+00 1.0000e+00
       13  1    1    2    0    0 +1.2835140177e-01 +6.1482498730e+01 -3.3422883348e+01 6.9980100168e+01 1.0566000000e-01 0.0000e+00 -1.0000e+00
<mgrwt>
<rscale>  0 0.40055286E+03</rscale>
<asrwt>0</asrwt>
<pdfrwt beam="1">  1        2 0.75987445E-01 0.40055286E+03</pdfrwt>
<pdfrwt beam="2">  1       -2 0.32991181E-01 0.40055286E+03</pdfrwt>
<totfact> 0.54236014E+02</totfact>
</mgrwt>
</event>
<event>
 6      1 +1.8175624e-03 1.68771100e+02 7.81860800e-03 1.17913500e-01
        2 -1    0    0  501    0 +0.0000000000e+00 +0.0000000000e+00 +2.4958454326e+02 2.4958454328e+02 2.5500000000e-03 0.0000e+00 -1.0000e+00
       -2 -1    0    0    0  501 -0.0000000000e+00 -0.0000000000e+00 -2.8531096410e+01 2.8531096524e+01 2.5500000000e-03 0.0000e+00 1.0000e+00
      -13  1    1    2    0    0 -3.4998477009e+01 +2.8214627013e+01 +3.9761901697e+01 6.0016485744e+01 1.0566000000e-01 0.0000e+00 1.0000e+00
       13  1    1    2    0    0 +3.2188799479e+01 -5.0494754734e+01 +7.3228224615e+01 9.4595048031e+01 1.0566000000e-01 0.0000e+00 -1.0000e+00
      -13  1    1    2    0    0 -1.4538427133e+01 -7.3386775029e+00 +8.8812669981e+00 1.8550205350e+01 1.0566000000e-01 0.0000e+00 1.0000e+00
       13  1    1    2    0    0 +1.7348104663e+01 +2.9618805224e+01 +9.9182053542e+01 1.0495390068e+02 1.0566000000e-01 0.0000e+00 -1.0000e+00
<mgrwt>
<rscale>  0 0.16877110E+03</rscale>
<asrwt>0</asrwt>
<pdfrwt beam="1">  1        2 0.62396135E-01 0.16877110E+03</pdfrwt>
<pdfrwt beam="2">  1       -2 0.71327742E-02 0.16877110E+03</pdfrwt>
<totfact> 0.85941314E+03</totfact>
</mgrwt>
</event>
<event>
 6      1 +1.8175624e-03 5.62549600e+02 7.81860800e-03 9.98630200e-02
       -1 -1    0    0    0  501 -0.0000000000e+00 +0.0000000000e+00 +1.7887266338e+02 1.7887266345e+02 5.0400000000e-03 0.0000e+00 1.0000e+00
        1 -1    0    0  501    0 +0.0000000000e+00 -0.0000000000e+00 -4.4230073220e+02 4.4230073223e+02 5.0400000000e-03 0.0000e+00 -1.0000e+00
      -13  1    1    2    0    0 -1.3106316457e+02 -3.1828683974e-01 +7.7928228350e+01 1.5248106227e+02 1.0566000000e-01 0.0000e+00 1.0000e+00
       13  1    1    2    0    0 +1.8346474232e+02 +5.2624900894e+01 -2.6856212301e+02 3.2947582149e+02 1.0566000000e-01 0.0000e+00 -1.0000e+00
      -13  1    1    2    0    0 -3.3372264063e+01 -7.2336990647e+01 -2.4098957735e+01 8.3229316665e+01 1.0566000000e-01 0.0000e+00 -1.0000e+00
       13  1    1    2    0    0 -1.9029313687e+01 +2.0030376593e+01 -4.8695216431e+01 5.5987195261e+01 1.0566000000e-01 0.0000e+00 1.0000e+00
<mgrwt>
<rscale>  0 0.56254959E+03</rscale>
<asrwt>0</asrwt>
<pdfrwt beam="1">  1        1 0.11057518E+00 0.56254959E+03</pdfrwt>
<pdfrwt beam="2">  1       -1 0.44718167E-01 0.56254959E+03</pdfrwt>
<totfact> 0.13366447E+02</totfact>
</mgrwt>
</event>
<event>
 6      1 +1.8175624e-03 2.72585500e+02 7.81860800e-03 1.09980900e-01
       -1 -1    0    0    0  501 -0.0000000000e+00 +0.0000000000e+00 +4.2116156578e+01 4.2116156879e+01 5.0400000000e-03 0.0000e+00 1.0000e+00
        1 -1    0    0  501    0 +0.0000000000e+00 -0.0000000000e+00 -4.4105908646e+02 4.4105908649e+02 5.0400000000e-03 0.0000e+00 -1.0000e+00
      -13  1    1    2    0    0 -6.1186759196e+00 -6.4329866889e+01 -1.2147520066e+02 1.3759362452e+02 1.0566000000e-01 0.0000e+00 1.0000e+00
       13  1    1    2    0    0 +7.5220430957e+01 +6.5844953718e+00 -8.0790916047e+01 1.1058323604e+02 1.0566000000e-01 0.0000e+00 -1.0000e+00
      -13  1    1    2    0    0 -2.0240183408e+01 +6.6465365083e+01 -6.8591152571e+01 9.7632305899e+01 1.0566000000e-01 0.0000e+00 1.0000e+00
       13  1    1    2    0    0 -4.8861571630e+01 -8.7199935655e+00 -1.2808566061e+02 1.3736607692e+02 1.0566000000e-01 0.0000e+00 -1.0000e+00
<mgrwt>
<rscale>  0 0.27258550E+03</rscale>
<asrwt>0</asrwt>
<pdfrwt beam="1">  1        1 0.11026476E+00 0.27258550E+03</pdfrwt>
<pdfrwt beam="2">  1       -1 0.10529041E-01 0.27258550E+03</pdfrwt>
<totfact> 0.15309255E+03</totfact>
</mgrwt>
</event>
<event>
 6      1 +1.8175624e-03 3.57977000e+02 7.81860800e-03 1.05938800e-01
        1 -1    0    0  501    0 +0.0000000000e+00 +0.0000000000e+00 +3.2838524148e+02 3.2838524152e+02 5.0400000000e-03 0.0000e+00 1.0000e+00
       -1 -1    0    0    0  501 -0.0000000000e+00 -0.0000000000e+00 -9.7558820742e+01 9.7558820872e+01 5.0400000000e-03 0.0000e+00 -1.0000e+00
      -13  1    1    2    0    0 -3.5197030061e+01 +3.0212313248e+01 +3.4664878313e+01 5.7907510302e+01 1.0566000000e-01 0.0000e+00 -1.0000e+00
       13  1    1    2    0    0 +3.5013384873e+01 -1.3371281070e+01 -1.5563251408e+01 4.0582683945e+01 1.0566000000e-01 0.0000e+00 1.0000e+00
      -13  1    1    2    0    0 -2.9575828668e+01 +3.6915484238e+01 -4.3908227946e+01 6.4540113599e+01 1.0566000000e-01 0.0000e+00 -1.0000e+00
       13  1    1    2    0    0 +2.9759473856e+01 -5.3756516416e+01 +2.5563302178e+02 2.6291375455e+02 1.0566000000e-01 0.0000e+00 1.0000e+00
<mgrwt>
<rscale>  0 0.35797697E+03</rscale>
<asrwt>0</asrwt>
<pdfrwt beam="1">  1        1 0.82096310E-01 0.35797697E+03</pdfrwt>
<pdfrwt beam="2">  1       -1 0.24389705E-01 0.35797697E+03</pdfrwt>
<totfact> 0.60099491E+02</totfact>
</mgrwt>
</event>
<event>
 6      1 +1.8175624e-03 3.30844200e+02 7.81860800e-03 1.07076400e-01
        1 -1    0    0  501    0 +0.0000000000e+00 +0.0000000000e+00 +7.0819061617e+01 7.0819061797e+01 5.0400000000e-03 0.0000e+00 -1.0000e+00
       -1 -1    0    0    0  501 -0.0000000000e+00 -0.0000000000e+00 -3.8639975030e+02 3.8639975033e+02 5.0400000000e-03 0.0000e+00 1.0000e+00
      -13  1    1    2    0    0 -3.4209420706e+01 -6.8048313738e+01 -5.8059991060e+01 9.5769677839e+01 1.0566000000e-01 0.0000e+00 -1.0000e+00
       13  1    1    2    0    0 +3.3074146252e+01 -6.1836771502e+01 -5.0557638643e+01 8.6450977145e+01 1.0566000000e-01 0.0000e+00 -1.0000e+00
      -13  1    1    2    0    0 +2.3487774345e+01 +9.8134804809e+01 -2.1300885022e+02 2.3570086316e+02 1.0566000000e-01 0.0000e+00 1.0000e+00
       13  1    1    2    0    0 -2.2352499892e+01 +3.1750280431e+01 +6.0457912386e+00 3.9297293986e+01 1.0566000000e-01 0.0000e+00 1.0000e+00
<mgrwt>
<rscale>  0 0.33084418E+03</rscale>
<asrwt>0</asrwt>
<pdfrwt beam="1">  1        1 0.17704766E-01 0.33084418E+03</pdfrwt>
<pdfrwt beam="2">  1       -1 0.96599932E-01 0.33084418E+03</pdfrwt>
<totfact> 0.32618732E+02</totfact>
</mgrwt>
</event>
<event>
 6      1 +1.8175624e-03 6.62673800e+02 7.81860800e-03 9.78328400e-02
        2 -1    0    0  501    0 +0.0000000000e+00 +0.0000000000e+00 +6.1623766005e+02 6.1623766005e+02 2.5500000000e-03 0.0000e+00 1.0000e+00
       -2 -1    0    0    0  501 -0.0000000000e+00 -0.0000000000e+00 -1.7815229189e+02 1.7815229191e+02 2.5500000000e-03 0.0000e+00 -1.0000e+00
      -13  1    1    2    0    0 +2.5760455052e+01 +8.9077869432e+01 +1.4690445315e+02 1.7372218450e+02 1.0566000000e-01 0.0000e+00 1.0000e+00
       13  1    1    2    0    0 -4.1524739950e+01 +6.4705552917e+00 +5.8904244922e+01 7.2359473102e+01 1.0566000000e-01 0.0000e+00 -1.0000e+00
      -13  1    1    2    0    0 +1.5418980434e+02 +3.8050372892e+01 -8.2829191942e+01 1.7911731587e+02 1.0566000000e-01 0.0000e+00 -1.0000e+00
       13  1    1    2    0    0 -1.3842551945e+02 -1.3359879762e+02 +3.1510586202e+02 3.6919097850e+02 1.0566000000e-01 0.0000e+00 1.0000e+00
<mgrwt>
<rscale>  0 0.66267383E+03</rscale>
<asrwt>0</asrwt>
<pdfrwt beam="1">  1        2 0.15405941E+00 0.66267383E+03</pdfrwt>
<pdfrwt beam="2">  1       -2 0.44538074E-01 0.66267383E+03</pdfrwt>
<totfact> 0.12248833E+02</totfact>
</mgrwt>
</event>
<event>
 6      1 +1.8175624e-03 2.99070400e+02 7.81860800e-03 1.08570600e-01
        1 -1    0    0  501    0 +0.0000000000e+00 +0.0000000000e+00 +2.6846935932e+02 2.6846935936e+02 5.0400000000e-03 0.0000e+00 1.0000e+00
       -1 -1    0    0    0  501 -0.0000000000e+00 -0.0000000000e+00 -8.3289874885e+01 8.3289875037e+01 5.0400000000e-03 0.0000e+00 -1.0000e+00
      -13  1    1    2    0    0 +2.1001389569e+01 -3.8231097006e+01 +2.0774734267e+00 4.3669236334e+01 1.0566000000e-01 0.0000e+00 -1.0000e+00
       13  1    1    2    0    0 +1.7312479689e+01 +7.7303573287e+00 +4.4011388615e+00 1.9464366538e+01 1.0566000000e-01 0.0000e+00 1.0000e+00
      -13  1    1    2    0    0 -8.2447877067e+01 -1.1792539672e-01 -1.8281698529e+01 8.4450565448e+01 1.0566000000e-01 0.0000e+00 -1.0000e+00
       13  1    1    2    0    0 +4.4134007809e+01 +3.0618665074e+01 +1.9698257067e+02 2.0417506608e+02 1.0566000000e-01 0.0000e+00 1.0000e+00
<mgrwt>
<rscale>  0 0.29907042E+03</rscale>
<asrwt>0</asrwt>
<pdfrwt beam="1">  1        1 0.67117339E-01 0.29907042E+03</pdfrwt>
<pdfrwt beam="2">  1       -1 0.20822469E-01 0.29907042E+03</pdfrwt>
<totfact> 0.10229918E+03</totfact>
</mgrwt>
</event>
<event>
 6      1 +1.8175624e-03 6.00696100e+02 7.81860800e-03 9.90396300e-02
        2 -1    0    0  501    0 +0.0000000000e+00 +0.0000000000e+00 +5.5512221040e+02 5.5512221041e+02 2.5500000000e-03 0.0000e+00 -1.0000e+00
       -2 -1    0    0    0  501 -0.0000000000e+00 -0.0000000000e+00 -1.6250286748e+02 1.6250286750e+02 2.5500000000e-03 0.0000e+00 1.0000e+00
      -13  1    1    2    0    0 +5.9078925525e+01 +5.2802042683e+01 -7.1605331131e+01 1.0679751759e+02 1.0566000000e-01 0.0000e+00 1.0000e+00
       13  1    1    2    0    0 -1.5034047470e+02 -7.3431177232e+00 +4.5567808352e+02 4.7989447452e+02 1.0566000000e-01 0.0000e+00 -1.0000e+00
      -13  1    1    2    0    0 +3.4608149852e+01 -5.2935162397e+01 -2.0950858644e+01 6.6624358129e+01 1.0566000000e-01 0.0000e+00 -1.0000e+00
       13  1    1    2    0    0 +5.6653399326e+01 +7.4762374375e+00 +2.9497449180e+01 6.4308727662e+01 1.0566000000e-01 0.0000e+00 1.0000e+00
<mgrwt>
<rscale>  0 0.60069610E+03</rscale>
<asrwt>0</asrwt>
<pdfrwt beam="1">  1        2 0.13878055E+00 0.60069610E+03</pdfrwt>
<pdfrwt beam="2">  1       -2 0.40625717E-01 0.60069610E+03</pdfrwt>
<totfact> 0.17111204E+02</totfact>
</mgrwt>
</event>
<event>
 6      1 +1.8175624e-03 4.64860300e+02 7.81860800e-03 1.02338100e-01
        1 -1    0    0  501    0 +0.0000000000e+00 +0.0000000000e+00 +8.0882927955e+02 8.0882927956e+02 5.0400000000e-03 0.0000e+00 -1.0000e+00
       -1 -1    0    0    0  501 -0.0000000000e+00 -0.0000000000e+00 -6.6792560655e+01 6.6792560845e+01 5.0400000000e-03 0.0000e+00 1.0000e+00
      -13  1    1    2    0    0 -6.1774326426e+00 +1.0103714229e+02 +1.1995852766e+02 1.5696090060e+02 1.0566000000e-01 0.0000e+00 1.0000e+00
       13  1    1    2    0    0 -1.2352435710e+02 -1.0811538614e+02 +4.7200890505e+02 4.9973955329e+02 1.0566000000e-01 0.0000e+00 -1.0000e+00
      -13  1    1    2    0    0 +1.4038431751e+02 -7.5769230621e+00 +1.3884516785e+02 1.9759341630e+02 1.0566000000e-01 0.0000e+00 1.0000e+00
       13  1    1    2    0    0 -1.0682527769e+01 +1.4655166917e+01 +1.1224118330e+01 2.1327970208e+01 1.0566000000e-01 0.0000e+00 -1.0000e+00
<mgrwt>
<rscale>  0 0.46486032E+03</rscale>
<asrwt>0</asrwt>
<pdfrwt beam="1">  1        1 0.20220732E+00 0.46486032E+03</pdfrwt>
<pdfrwt beam="2">  1       -1 0.16698140E-01 0.46486032E+03</pdfrwt>
<totfact> 0.25326542E+02</totfact>
</mgrwt>
</event>
<event>
 7      1 +1.8175624e-03 9.27280700e+01 7.81860800e-03 1.29637700e-01
       -1 -1    0    0    0  501 -0.0000000000e+00 +0.0000000000e+00 +2.6745455447e+02 2.6745455451e+02 5.0400000000e-03 0.0000e+00 1.0000e+00
        1 -1    0    0  501    0 +0.0000000000e+00 -0.0000000000e+00 -8.0373406442e+00 8.0373422244e+00 5.0400000000e-03 0.0000e+00 -1.0000e+00
       23  2    1    2    0    0 -3.5527136788e-15 +0.0000000000e+00 +2.5941721382e+02 2.7549189674e+02 9.2728066631e+01 0.0000e+00 0.0000e+00
      -13  1    3    3    0    0 +2.5009855943e+01 -1.1836570555e+01 +6.5841378744e+01 7.1419154403e+01 1.0566000000e-01 0.0000e+00 1.0000e+00
       13  1    3    3    0    0 -2.7105572520e+01 +7.5798913244e+00 +1.3100194024e+02 1.3399136661e+02 1.0566000000e-01 0.0000e+00 -1.0000e+00
      -13  1    3    3    0    0 -1.3332008377e+01 -3.9391162228e+00 +2.3996858559e+01 2.7733003240e+01 1.0566000000e-01 0.0000e+00 1.0000e+00
       13  1    3    3    0    0 +1.5427724954e+01 +8.1957954537e+00 +3.8577036279e+01 4.2348372489e+01 1.0566000000e-01 0.0000e+00 -1.0000e+00
<mgrwt>
<rscale>  0 0.92728067E+02</rscale>
<asrwt>0</asrwt>
<pdfrwt beam="1">  1        1 0.20093353E-02 0.92728067E+02</pdfrwt>
<pdfrwt beam="2">  1       -1 0.66863639E-01 0.92728067E+02</pdfrwt>
<totfact> 0.12728114E+04</totfact>
</mgrwt>
</event>
<event>
 6      1 +1.8175624e-03 1.76201700e+02 7.81860800e-03 1.17153100e-01
        1 -1    0    0  501    0 +0.0000000000e+00 +0.0000000000e+00 +3.1752420464e+02 3.1752420468e+02 5.0400000000e-03 0.0000e+00 -1.0000e+00
       -1 -1    0    0    0  501 -0.0000000000e+00 -0.0000000000e+00 -2.4444610017e+01 2.4444610537e+01 5.0400000000e-03 0.0000e+00 1.0000e+00
      -13  1    1    2    0    0 +6.2472857197e+01 -4.0164135663e+01 +1.1510107334e+02 1.3698278697e+02 1.0566000000e-01 0.0000e+00 1.0000e+00
       13  1    1    2    0    0 -2.2629145482e+01 +1.1248621957e+01 +2.4360063211e+01 3.5100335680e+01 1.0566000000e-01 0.0000e+00 -1.0000e+00
      -13  1    1    2    0    0 +8.0090288738e+00 +2.0677642710e+01 +3.2000195161e+01 3.8932417160e+01 1.0566000000e-01 0.0000e+00 -1.0000e+00
       13  1    1    2    0    0 -4.7852740588e+01 +8.2378709955e+00 +1.2161826291e+02 1.3095327540e+02 1.0566000000e-01 0.0000e+00 1.0000e+00
<mgrwt>
<rscale>  0 0.17620165E+03</rscale>
<asrwt>0</asrwt>
<pdfrwt beam="1">  1        1 0.79381052E-01 0.17620165E+03</pdfrwt>
<pdfrwt beam="2">  1       -1 0.61111525E-02 0.17620165E+03</pdfrwt>
<totfact> 0.54900426E+03</totfact>
</mgrwt>
</event>
<event>
 6      1 +1.8175624e-03 3.61076300e+02 7.81860800e-03 1.05815800e-01
       -1 -1    0    0    0  501 -0.0000000000e+00 +0.0000000000e+00 +1.1306688330e+02 1.1306688341e+02 5.0400000000e-03 0.0000e+00 1.0000e+00
        1 -1    0    0  501    0 +0.0000000000e+00 -0.0000000000e+00 -2.8827210316e+02 2.8827210320e+02 5.0400000000e-03 0.0000e+00 -1.0000e+00
      -13  1    1    2    0    0 +5.2275503191e+01 +7.6377499876e+01 -7.9776727386e+01 1.2219078573e+02 1.0566000000e-01 0.0000e+00 -1.0000e+00
       13  1    1    2    0    0 +6.3245185277e+00 -2.8092669586e+01 -4.6020555843e+00 2.9161407694e+01 1.0566000000e-01 0.0000e+00 1.0000e+00
      -13  1    1    2    0    0 +1.0881197502e+01 +4.0372465550e+01 +5.2868728753e+01 6.7405119076e+01 1.0566000000e-01 0.0000e+00 1.0000e+00
       13  1    1    2    0    0 -6.9481219221e+01 -8.8657295840e+01 -1.4369516564e+02 1.8258167412e+02 1.0566000000e-01 0.0000e+00 -1.0000e+00
<mgrwt>
<rscale>  0 0.36107633E+03</rscale>
<asrwt>0</asrwt>
<pdfrwt beam="1">  1        1 0.72068024E-01 0.36107633E+03</pdfrwt>
<pdfrwt beam="2">  1       -1 0.28266721E-01 0.36107633E+03</pdfrwt>
<totfact> 0.55815019E+02</totfact>
</mgrwt>
</event>
<event>
 6      1 +1.8175624e-03 8.11163800e+02 7.81860800e-03 9.54399700e-02
        2 -1    0    0  501    0 +0.0000000000e+00 +0.0000000000e+00 +7.9535600497e+02 7.9535600498e+02 2.5500000000e-03 0.0000e+00 1.0000e+00
       -2 -1    0    0    0  501 -0.0000000000e+00 -0.0000000000e+00 -2.0682144292e+02 2.0682144294e+02 2.5500000000e-03 0.0000e+00 -1.0000e+00
      -13  1    1    2    0    0 +1.4195236126e+02 +2.0109324430e+02 +1.7013172834e+02 2.9922196096e+02 1.0566000000e-01 0.0000e+00 1.0000e+00
       13  1    1    2    0    0 +1.8533871410e+01 +9.3390422460e+01 +3.0718733496e+02 3.2160433038e+02 1.0566000000e-01 0.0000e+00 1.0000e+00
      -13  1    1    2    0    0 -1.7678929889e+02 -2.8849371178e+02 +8.3272633895e+01 3.4845002606e+02 1.0566000000e-01 0.0000e+00 -1.0000e+00
       13  1    1    2    0    0 +1.6303066219e+01 -5.9899549802e+00 +2.7942864853e+01 3.2901130513e+01 1.0566000000e-01 0.0000e+00 -1.0000e+00
<mgrwt>
<rscale>  0 0.81116380E+03</rscale>
<asrwt>0</asrwt>
<pdfrwt beam="1">  1        2 0.19883900E+00 0.81116380E+03</pdfrwt>
<pdfrwt beam="2">  1       -2 0.51705361E-01 0.81116380E+03</pdfrwt>
<totfact> 0.59745975E+01</totfact>
</mgrwt>
</event>
<event>
 6      1 +1.8175624e-03 3.93696300e+02 7.81860800e-03 1.04598500e-01
        1 -1    0    0  501    0 +0.0000000000e+00 +0.0000000000e+00 +1.0867828932e+02 1.0867828944e+02 5.0400000000e-03 0.0000e+00 -1.0000e+00
       -1 -1    0    0    0  501 -0.0000000000e+00 -0.0000000000e+00 -3.5654954412e+02 3.5654954415e+02 5.0400000000e-03 0.0000e+00 1.0000e+00
      -13  1    1    2    0    0 -7.7135323181e+01 -5.3380706032e+00 -1.6814689151e+02 1.8507225986e+02 1.0566000000e-01 0.0000e+00 1.0000e+00
       13  1    1    2    0    0 -1.8916489547e+01 -1.0631837801e+01 -2.0265581257e+01 2.9691320273e+01 1.0566000000e-01 0.0000e+00 1.0000e+00
      -13  1    1    2    0    0 +1.0954935518e+02 +8.3680846287e+01 -1.0008591435e+02 1.7035476709e+02 1.0566000000e-01 0.0000e+00 -1.0000e+00
       13  1    1    2    0    0 -1.3497542452e+01 -6.7710937883e+01 +4.0627132327e+01 8.0109486369e+01 1.0566000000e-01 0.0000e+00 -1.0000e+00
<mgrwt>
<rscale>  0 0.39369630E+03</rscale>
<asrwt>0</asrwt>
<pdfrwt beam="1">  1        1 0.27169573E-01 0.39369630E+03</pdfrwt>
<pdfrwt beam="2">  1       -1 0.89137384E-01 0.39369630E+03</pdfrwt>
<totfact> 0.22234055E+02</totfact>
</mgrwt>
</event>
<event>
 6      1 +1.8175624e-03 4.22838100e+02 7.81860800e-03 1.03614700e-01
       -2 -1    0    0    0  501 -0.0000000000e+00 +0.0000000000e+00 +1.3573392706e+02 1.3573392709e+02 2.5500000000e-03 0.0000e+00 -1.0000e+00
        2 -1    0    0  501    0 +0.0000000000e+00 -0.0000000000e+00 -3.2930619013e+02 3.2930619014e+02 2.5500000000e-03 0.0000e+00 1.0000e+00
      -13  1    1    2    0    0 +1.0431762224e+02 +3.0106307006e+01 -9.4202170027e+01 1.4374496872e+02 1.0566000000e-01 0.0000e+00 1.0000e+00
       13  1    1    2    0    0 -5.1766285907e+01 +2.0741432037e+01 -9.9731787932e+01 1.1426458790e+02 1.0566000000e-01 0.0000e+00 1.0000e+00
      -13  1    1    2    0    0 -2.7804268337e+01 -5.7529750820e+01 +9.1922810526e+01 1.1194893401e+02 1.0566000000e-01 0.0000e+00 -1.0000e+00
       13  1    1    2    0    0 -2.4747067994e+01 +6.6820117773e+00 -9.1561115635e+01 9.5081626595e+01 1.0566000000e-01 0.0000e+00 -1.0000e+00
<mgrwt>
<rscale>  0 0.42283814E+03</rscale>
<asrwt>0</asrwt>
<pdfrwt beam="1">  1        2 0.82326546E-01 0.42283814E+03</pdfrwt>
<pdfrwt beam="2">  1       -2 0.33933482E-01 0.42283814E+03</pdfrwt>
<totfact> 0.46904251E+02</totfact>
</mgrwt>
</event>
<event>
 6      1 +1.8175624e-03 1.30783100e+02 7.81860800e-03 1.22629800e-01
       -2 -1    0    0    0  501 -0.0000000000e+00 +0.0000000000e+00 +4.0847485460e+01 4.0847485540e+01 2.5500000000e-03 0.0000e+00 -1.0000e+00
        2 -1    0    0  501    0 +0.0000000000e+00 -0.0000000000e+00 -1.0468350638e+02 1.0468350641e+02 2.5500000000e-03 0.0000e+00 1.0000e+00
      -13  1    1    2    0    0 +8.4303267596e+00 -3.6963551840e+01 -6.6863464085e+01 7.6864221634e+01 1.0566000000e-01 0.0000e+00 1.0000e+00
       13  1    1    2    0    0 -7.3307727062e+00 +7.2145942196e+00 +1.5883006438e+01 1.8922781396e+01 1.0566000000e-01 0.0000e+00 -1.0000e+00
      -13  1    1    2    0    0 +8.3141862688e+00 +3.5624957482e+01 -7.1842104081e+00 3.7281192740e+01 1.0566000000e-01 0.0000e+00 -1.0000e+00
       13  1    1    2    0    0 -9.4137403221e+00 -5.8759998617e+00 -5.6713528603e+00 1.2462796176e+01 1.0566000000e-01 0.0000e+00 1.0000e+00
<mgrwt>
<rscale>  0 0.13078315E+03</rscale>
<asrwt>0</asrwt>
<pdfrwt beam="1">  1        2 0.26170876E-01 0.13078315E+03</pdfrwt>
<pdfrwt beam="2">  1       -2 0.10211872E-01 0.13078315E+03</pdfrwt>
<totfact> 0.12260757E+04</totfact>
</mgrwt>
</event>
<event>
 6      1 +1.8175624e-03 3.95867500e+02 7.81860800e-03 1.04522000e-01
        2 -1    0    0  501    0 +0.0000000000e+00 +0.0000000000e+00 +8.8793374944e+02 8.8793374944e+02 2.5500000000e-03 0.0000e+00 1.0000e+00
       -2 -1    0    0    0  501 -0.0000000000e+00 -0.0000000000e+00 -4.4122409823e+01 4.4122409896e+01 2.5500000000e-03 0.0000e+00 -1.0000e+00
      -13  1    1    2    0    0 -1.3732287831e+02 -5.5046034979e+01 +6.1228748278e+02 6.2990762149e+02 1.0566000000e-01 0.0000e+00 1.0000e+00
       13  1    1    2    0    0 +8.0885135830e+01 -9.8140254125e+00 +4.4837024411e+01 9.3000485026e+01 1.0566000000e-01 0.0000e+00 1.0000e+00
      -13  1    1    2    0    0 +2.6516115701e+01 +3.5380747710e+01 +1.3767001236e+02 1.4459579927e+02 1.0566000000e-01 0.0000e+00 -1.0000e+00
       13  1    1    2    0    0 +2.9921626779e+01 +2.9479312682e+01 +4.9016820066e+01 6.4552253553e+01 1.0566000000e-01 0.0000e+00 -1.0000e+00
<mgrwt>
<rscale>  0 0.39586754E+03</rscale>
<asrwt>0</asrwt>
<pdfrwt beam="1">  1        2 0.22198343E+00 0.39586754E+03</pdfrwt>
<pdfrwt beam="2">  1       -2 0.11030603E-01 0.39586754E+03</pdfrwt>
<totfact> 0.82394353E+02</totfact>
</mgrwt>
</event>
<event>
 6      1 +1.8175624e-03 1.46079300e+02 7.81860800e-03 1.20537500e-01
        1 -1    0    0  501    0 +0.0000000000e+00 +0.0000000000e+00 +2.7877380506e+01 2.7877380962e+01 5.0400000000e-03 0.0000e+00 -1.0000e+00
       -1 -1    0    0    0  501 -0.0000000000e+00 -0.0000000000e+00 -1.9136627641e+02 1.9136627647e+02 5.0400000000e-03 0.0000e+00 1.0000e+00
      -13  1    1    2    0    0 +2.0467218768e+01 -7.0892925438e+00 -1.1893015604e+01 2.4710728380e+01 1.0566000000e-01 0.0000e+00 1.0000e+00
       13  1    1    2    0    0 -1.4098180133e+01 +3.2513945285e+01 -7.3017029778e+01 8.1162880202e+01 1.0566000000e-01 0.0000e+00 -1.0000e+00
      -13  1    1    2    0    0 +4.4959525662e+00 -4.8909704575e+01 -7.1134733061e+01 8.6443821079e+01 1.0566000000e-01 0.0000e+00 1.0000e+00
       13  1    1    2    0    0 -1.0864991202e+01 +2.3485051834e+01 -7.4441174587e+00 2.6926227776e+01 1.0566000000e-01 0.0000e+00 -1.0000e+00
<mgrwt>
<rscale>  0 0.14607930E+03</rscale>
<asrwt>0</asrwt>
<pdfrwt beam="1">  1        1 0.69693458E-02 0.14607930E+03</pdfrwt>
<pdfrwt beam="2">  1       -1 0.47841565E-01 0.14607930E+03</pdfrwt>
<totfact> 0.45004557E+03</totfact>
</mgrwt>
</event>
<event>
 6      1 +1.8175624e-03 1.70140100e+02 7.81860800e-03 1.17770200e-01
        1 -1    0    0  501    0 +0.0000000000e+00 +0.0000000000e+00 +3.5403620687e+02 3.5403620691e+02 5.0400000000e-03 0.0000e+00 1.0000e+00
       -1 -1    0    0    0  501 -0.0000000000e+00 -0.0000000000e+00 -2.0441159506e+01 2.0441160127e+01 5.0400000000e-03 0.0000e+00 -1.0000e+00
      -13  1    1    2    0    0 -1.1403363198e+01 +1.8272083160e+01 +2.9487349441e+01 3.6516032867e+01 1.0566000000e-01 0.0000e+00 -1.0000e+00
       13  1    1    2    0    0 -2.2922551294e+01 -1.2773123446e+01 +1.3879153975e+02 1.4125048216e+02 1.0566000000e-01 0.0000e+00 1.0000e+00
      -13  1    1    2    0    0 -1.3322520620e+01 +1.7683883717e+01 +1.3260014146e+02 1.3443592517e+02 1.0566000000e-01 0.0000e+00 1.0000e+00
       13  1    1    2    0    0 +4.7648435112e+01 -2.3182843431e+01 +3.2716016717e+01 6.2274926833e+01 1.0566000000e-01 0.0000e+00 -1.0000e+00
<mgrwt>
<rscale>  0 0.17014007E+03</rscale>
<asrwt>0</asrwt>
<pdfrwt beam="1">  1        1 0.88509051E-01 0.17014007E+03</pdfrwt>
<pdfrwt beam="2">  1       -1 0.51102900E-02 0.17014007E+03</pdfrwt>
<totfact> 0.61882359E+03</totfact>
</mgrwt>
</event>
<event>
 6      1 +1.8175624e-03 2.70928600e+02 7.81860800e-03 1.10074900e-01
        2 -1    0    0  501    0 +0.0000000000e+00 +0.0000000000e+00 +4.0605024194e+02 4.0605024194e+02 2.5500000000e-03 0.0000e+00 -1.0000e+00
       -2 -1    0    0    0  501 -0.0000000000e+00 -0.0000000000e+00 -4.5192875361e+01 4.5192875432e+01 2.5500000000e-03 0.0000e+00 1.0000e+00
      -13  1    1    2    0    0 -1.3324193510e+01 -7.4261367805e+01 +4.9024953184e+01 8.9976341778e+01 1.0566000000e-01 0.0000e+00 1.0000e+00
       13  1    1    2    0    0 -3.5013884643e+01 +9.3269657009e+00 +1.6412194876e+02 1.6807435747e+02 1.0566000000e-01 0.0000e+00 -1.0000e+00
      -13  1    1    2    0    0 +3.6193826861e+01 +4.3679373751e+01 +1.5599130181e+01 5.8832175045e+01 1.0566000000e-01 0.0000e+00 -1.0000e+00
       13  1    1    2    0    0 +1.2144251293e+01 +2.1255028353e+01 +1.3211133444e+02 1.3436024309e+02 1.0566000000e-01 0.0000e+00 1.0000e+00
<mgrwt>
<rscale>  0 0.27092861E+03</rscale>
<asrwt>0</asrwt>
<pdfrwt beam="1">  1        2 0.10151256E+00 0.27092861E+03</pdfrwt>
<pdfrwt beam="2">  1       -2 0.11298219E-01 0.27092861E+03</pdfrwt>
<totfact> 0.24516738E+03</totfact>
</mgrwt>
</event>
<event>
 6      1 +1.8175624e-03 2.72256100e+02 7.81860800e-03 1.09999500e-01
        2 -1    0    0  501    0 +0.0000000000e+00 +0.0000000000e+00 +6.8289566838e+02 6.8289566838e+02 2.5500000000e-03 0.0000e+00 -1.0000e+00
       -2 -1    0    0    0  501 -0.0000000000e+00 -0.0000000000e+00 -2.7135690932e+01 2.7135691052e+01 2.5500000000e-03 0.0000e+00 1.0000e+00
      -13  1    1    2    0    0 +2.0139689562e+01 +8.1328816334e+01 +2.0198389836e+02 2.1867210573e+02 1.0566000000e-01 0.0000e+00 1.0000e+00
       13  1    1    2    0    0 -6.3886007790e+01 -4.4215401727e+01 +2.9118807753e+02 3.0137506765e+02 1.0566000000e-01 0.0000e+00 -1.0000e+00
      -13  1    1    2    0    0 +5.7031084988e+01 -1.1858383176e+01 +6.0507353360e+01 8.3989980838e+01 1.0566000000e-01 0.0000e+00 1.0000e+00
       13  1    1    2    0    0 -1.3284766760e+01 -2.5255031430e+01 +1.0208064820e+02 1.0599420523e+02 1.0566000000e-01 0.0000e+00 -1.0000e+00
<mgrwt>
<rscale>  0 0.27225610E+03</rscale>
<asrwt>0</asrwt>
<pdfrwt beam="1">  1        2 0.17072391E+00 0.27225610E+03</pdfrwt>
<pdfrwt beam="2">  1       -2 0.67839229E-02 0.27225610E+03</pdfrwt>
<totfact> 0.27558123E+03</totfact>
</mgrwt>
</event>
<event>
 6      1 +1.8175624e-03 6.66287700e+02 7.81860800e-03 9.77668800e-02
        2 -1    0    0  501    0 +0.0000000000e+00 +0.0000000000e+00 +2.6805255036e+02 2.6805255037e+02 2.5500000000e-03 0.0000e+00 1.0000e+00
       -2 -1    0    0    0  501 -0.0000000000e+00 -0.0000000000e+00 -4.1404125020e+02 4.1404125021e+02 2.5500000000e-03 0.0000e+00 -1.0000e+00
      -13  1    1    2    0    0 +9.9270902008e+01 +5.9079502102e+01 -2.9250550514e+02 3.1449098756e+02 1.0566000000e-01 0.0000e+00 -1.0000e+00
       13  1    1    2    0    0 -4.1084063852e+01 -3.0411905484e+01 -8.9670923212e+01 1.0321661655e+02 1.0566000000e-01 0.0000e+00 1.0000e+00
      -13  1    1    2    0    0 -3.0621169490e+01 +3.6717838849e+01 +9.1774278463e+01 1.0348132712e+02 1.0566000000e-01 0.0000e+00 -1.0000e+00
       13  1    1    2    0    0 -2.7565668666e+01 -6.5385435467e+01 +1.4441345006e+02 1.6090486935e+02 1.0566000000e-01 0.0000e+00 1.0000e+00
<mgrwt>
<rscale>  0 0.66628766E+03</rscale>
<asrwt>0</asrwt>
<pdfrwt beam="1">  1        2 0.67013138E-01 0.66628766E+03</pdfrwt>
<pdfrwt beam="2">  1       -2 0.10351031E+00 0.66628766E+03</pdfrwt>
<totfact> 0.55838029E+01</totfact>
</mgrwt>
</event>
<event>
 6      1 +1.8175624e-03 4.67563500e+02 7.81860800e-03 1.02261000e-01
        1 -1    0    0  501    0 +0.0000000000e+00 +0.0000000000e+00 +7.3695928301e+02 7.3695928303e+02 5.0400000000e-03 0.0000e+00 -1.0000e+00
       -1 -1    0    0    0  501 -0.0000000000e+00 -0.0000000000e+00 -7.4161352181e+01 7.4161352353e+01 5.0400000000e-03 0.0000e+00 1.0000e+00
      -13  1    1    2    0    0 +3.0846744794e+01 -7.5701664280e+00 -1.4128957546e+00 3.1793655382e+01 1.0566000000e-01 0.0000e+00 1.0000e+00
       13  1    1    2    0    0 -7.1992730006e+00 -4.6003506993e+01 +1.7394697090e+02 1.8007140816e+02 1.0566000000e-01 0.0000e+00 -1.0000e+00
      -13  1    1    2    0    0 -1.7408824772e+02 +3.5515751841e+01 +1.7457660502e+02 2.4908851601e+02 1.0566000000e-01 0.0000e+00 1.0000e+00
       13  1    1    2    0    0 +1.5044077593e+02 +1.8057921580e+01 +3.1568725067e+02 3.5016705583e+02 1.0566000000e-01 0.0000e+00 -1.0000e+00
<mgrwt>
<rscale>  0 0.46756346E+03</rscale>
<asrwt>0</asrwt>
<pdfrwt beam="1">  1        1 0.18423982E+00 0.46756346E+03</pdfrwt>
<pdfrwt beam="2">  1       -1 0.18540338E-01 0.46756346E+03</pdfrwt>
<totfact> 0.25793824E+02</totfact>
</mgrwt>
</event>
<event>
 6      1 +1.8175624e-03 2.49930200e+02 7.81860800e-03 1.11334900e-01
       -2 -1    0    0    0  501 -0.0000000000e+00 +0.0000000000e+00 +7.5563257435e+01 7.5563257478e+01 2.5500000000e-03 0.0000e+00 1.0000e+00
        2 -1    0    0  501    0 +0.0000000000e+00 -0.0000000000e+00 -2.0666488527e+02 2.0666488529e+02 2.5500000000e-03 0.0000e+00 -1.0000e+00
      -13  1    1    2    0    0 -4.8269209639e+01 +5.7676119952e+01 -4.4247262354e+01 8.7259857906e+01 1.0566000000e-01 0.0000e+00 -1.0000e+00
       13  1    1    2    0    0 +2.1064478208e+01 -5.0065598643e+01 -1.0802040523e+02 1.2090779759e+02 1.0566000000e-01 0.0000e+00 -1.0000e+00
      -13  1    1    2    0    0 +2.4377025730e+01 +2.4741646097e+01 +2.2792799686e+01 4.1544088828e+01 1.0566000000e-01 0.0000e+00 1.0000e+00
       13  1    1    2    0    0 +2.8277057010e+00 -3.2352167406e+01 -1.6267599418e+00 3.2516398438e+01 1.0566000000e-01 0.0000e+00 1.0000e+00
<mgrwt>
<rscale>  0 0.24993017E+03</rscale>
<asrwt>0</asrwt>
<pdfrwt beam="1">  1        2 0.51666220E-01 0.24993017E+03</pdfrwt>
<pdfrwt beam="2">  1       -2 0.18890815E-01 0.24993017E+03</pdfrwt>
<totfact> 0.22305928E+03</totfact>
</mgrwt>
</event>
<event>
 6      1 +1.8175624e-03 7.96096900e+02 7.81860800e-03 9.56568400e-02
        2 -1    0    0  501    0 +0.0000000000e+00 +0.0000000000e+00 +3.0334912365e+02 3.0334912366e+02 2.5500000000e-03 0.0000e+00 -1.0000e+00
       -2 -1    0    0    0  501 -0.0000000000e+00 -0.0000000000e+00 -5.2231097122e+02 5.2231097123e+02 2.5500000000e-03 0.0000e+00 1.0000e+00
      -13  1    1    2    0    0 +1.0424105769e+01 +8.3496445995e+01 -1.0227522288e+02 1.3244074469e+02 1.0566000000e-01 0.0000e+00 -1.0000e+00
       13  1    1    2    0    0 -2.4519162983e+02 +9.7767218578e+00 +1.6562158704e+02 2.9604905149e+02 1.0566000000e-01 0.0000e+00 -1.0000e+00
      -13  1    1    2    0    0 +1.3174707853e+02 -5.9177272381e+01 -2.4118829984e+02 2.8112461545e+02 1.0566000000e-01 0.0000e+00 1.0000e+00
       13  1    1    2    0    0 +1.0302044553e+02 -3.4095895472e+01 -4.1119911899e+01 1.1604568326e+02 1.0566000000e-01 0.0000e+00 1.0000e+00
<mgrwt>
<rscale>  0 0.79609692E+03</rscale>
<asrwt>0</asrwt>
<pdfrwt beam="1">  1        2 0.75837282E-01 0.79609692E+03</pdfrwt>
<pdfrwt beam="2">  1       -2 0.13057774E+00 0.79609692E+03</pdfrwt>
<totfact> 0.27126193E+01</totfact>
</mgrwt>
</event>
<event>
 6      1 +1.8175624e-03 2.74914000e+02 7.81860800e-03 1.09850000e-01
        2 -1    0    0  501    0 +0.0000000000e+00 +0.0000000000e+00 +4.4040782162e+02 4.4040782163e+02 2.5500000000e-03 0.0000e+00 1.0000e+00
       -2 -1    0    0    0  501 -0.0000000000e+00 -0.0000000000e+00 -4.2902111258e+01 4.2902111334e+01 2.5500000000e-03 0.0000e+00 -1.0000e+00
      -13  1    1    2    0    0 +3.4816590788e+00 -1.9629691587e+01 -1.0692437997e+01 2.2622690735e+01 1.0566000000e-01 0.0000e+00 -1.0000e+00
       13  1    1    2    0    0 -5.1104938377e+01 +7.1373893372e+01 +2.1194396991e+02 2.2940402116e+02 1.0566000000e-01 0.0000e+00 1.0000e+00
      -13  1    1    2    0    0 +4.5074477741e+01 -8.0117820483e+01 +1.3054137624e+02 1.5966100268e+02 1.0566000000e-01 0.0000e+00 -1.0000e+00
       13  1    1    2    0    0 +2.5488015571e+00 +2.8373618699e+01 +6.5712802215e+01 7.1622218385e+01 1.0566000000e-01 0.0000e+00 1.0000e+00
<mgrwt>
<rscale>  0 0.27491399E+03</rscale>
<asrwt>0</asrwt>
<pdfrwt beam="1">  1        2 0.11010195E+00 0.27491399E+03</pdfrwt>
<pdfrwt beam="2">  1       -2 0.10725528E-01 0.27491399E+03</pdfrwt>
<totfact> 0.24162551E+03</totfact>
</mgrwt>
</event>
<event>
 6      1 +1.8175624e-03 3.36839000e+02 7.81860800e-03 1.06815000e-01
        2 -1    0    0  501    0 +0.0000000000e+00 +0.0000000000e+00 +3.4533291543e+02 3.4533291544e+02 2.5500000000e-03 0.0000e+00 -1.0000e+00
       -2 -1    0    0    0  501 -0.0000000000e+00 -0.0000000000e+00 -8.2138523959e+01 8.2138523999e+01 2.5500000000e-03 0.0000e+00 1.0000e+00
      -13  1    1    2    0    0 +1.2107371122e+02 +5.8644104205e+01 +7.9187762730e+01 1.5610473227e+02 1.0566000000e-01 0.0000e+00 -1.0000e+00
       13  1    1    2    0    0 -1.6002118773e+01 +1.9125053214e+01 +4.0287782625e+01 4.7380925050e+01 1.0566000000e-01 0.0000e+00 1.0000e+00
      -13  1    1    2    0    0 -5.4985184655e+01 -8.8923913062e+00 -1.4071567536e+00 5.5717469512e+01 1.0566000000e-01 0.0000e+00 1.0000e+00
       13  1    1    2    0    0 -5.0086407791e+01 -6.8876766113e+01 +1.4512600287e+02 1.6826831261e+02 1.0566000000e-01 0.0000e+00 -1.0000e+00
<mgrwt>
<rscale>  0 0.33683905E+03</rscale>
<asrwt>0</asrwt>
<pdfrwt beam="1">  1        2 0.86333228E-01 0.33683905E+03</pdfrwt>
<pdfrwt beam="2">  1       -2 0.20534631E-01 0.33683905E+03</pdfrwt>
<totfact> 0.10978139E+03</totfact>
</mgrwt>
</event>
<event>
 6      1 +1.8175624e-03 4.00325400e+02 7.81860800e-03 1.04366700e-01
        2 -1    0    0  501    0 +0.0000000000e+00 +0.0000000000e+00 +1.0163301428e+02 1.0163301432e+02 2.5500000000e-03 0.0000e+00 1.0000e+00
       -2 -1    0    0    0  501 -0.0000000000e+00 -0.0000000000e+00 -3.9421352457e+02 3.9421352458e+02 2.5500000000e-03 0.0000e+00 -1.0000e+00
      -13  1    1    2    0    0 -5.4011970625e+01 +6.5152080963e+01 -4.3862429653e+01 9.5320567160e+01 1.0566000000e-01 0.0000e+00 -1.0000e+00
       13  1    1    2    0    0 -7.1579172513e+01 +1.5821253801e+01 -2.3822420934e+02 2.4924821983e+02 1.0566000000e-01 0.0000e+00 -1.0000e+00
      -13  1    1    2    0    0 +1.3308437516e+01 -1.6167913736e+01 -4.9431455026e+00 2.1516547009e+01 1.0566000000e-01 0.0000e+00 1.0000e+00
       13  1    1    2    0    0 +1.1228270562e+02 -6.4805421028e+01 -5.5507257967e+00 1.2976120490e+02 1.0566000000e-01 0.0000e+00 1.0000e+00
<mgrwt>
<rscale>  0 0.40032541E+03</rscale>
<asrwt>0</asrwt>
<pdfrwt beam="1">  1        2 0.25408255E-01 0.40032541E+03</pdfrwt>
<pdfrwt beam="2">  1       -2 0.98553377E-01 0.40032541E+03</pdfrwt>
<totfact> 0.18744814E+02</totfact>
</mgrwt>
</event>
<event>
 6      1 +1.8175624e-03 2.97163200e+02 7.81860800e-03 1.08666700e-01
        2 -1    0    0  501    0 +0.0000000000e+00 +0.0000000000e+00 +1.7666672311e+02 1.7666672313e+02 2.5500000000e-03 0.0000e+00 -1.0000e+00
       -2 -1    0    0    0  501 -0.0000000000e+00 -0.0000000000e+00 -1.2496123949e+02 1.2496123952e+02 2.5500000000e-03 0.0000e+00 1.0000e+00
      -13  1    1    2    0    0 +1.8712510590e+01 -3.6580828046e+00 +9.6134243827e+01 9.8006854978e+01 1.0566000000e-01 0.0000e+00 1.0000e+00
       13  1    1    2    0    0 +2.8579368792e+01 +8.5032040841e+01 -2.2512424708e+01 9.2488100426e+01 1.0566000000e-01 0.0000e+00 -1.0000e+00
      -13  1    1    2    0    0 -2.6608447811e+01 -6.8766009017e+01 -3.7102170077e+01 8.2543053490e+01 1.0566000000e-01 0.0000e+00 1.0000e+00
       13  1    1    2    0    0 -2.0683431571e+01 -1.2607949020e+01 +1.5185834576e+01 2.8589953757e+01 1.0566000000e-01 0.0000e+00 -1.0000e+00
<mgrwt>
<rscale>  0 0.29716321E+03</rscale>
<asrwt>0</asrwt>
<pdfrwt beam="1">  1        2 0.44166681E-01 0.29716321E+03</pdfrwt>
<pdfrwt beam="2">  1       -2 0.31240310E-01 0.29716321E+03</pdfrwt>
<totfact> 0.10908256E+03</totfact>
</mgrwt>
</event>
<event>
 6      1 +1.8175624e-03 2.34265700e+02 7.81860800e-03 1.12367300e-01
       -2 -1    0    0    0  501 -0.0000000000e+00 +0.0000000000e+00 +5.8397557345e+02 5.8397557345e+02 2.5500000000e-03 0.0000e+00 1.0000e+00
        2 -1    0    0  501    0 +0.0000000000e+00 -0.0000000000e+00 -2.3494321507e+01 2.3494321645e+01 2.5500000000e-03 0.0000e+00 -1.0000e+00
      -13  1    1    2    0    0 +1.3782762412e+01 -1.8773088110e+01 +1.7407442376e+01 2.9076168781e+01 1.0566000000e-01 0.0000e+00 1.0000e+00
       13  1    1    2    0    0 -1.3733149361e+01 -3.2965148568e+01 +8.7817349759e+01 9.4800835936e+01 1.0566000000e-01 0.0000e+00 -1.0000e+00
      -13  1    1    2    0    0 +4.5139443290e+01 -4.0223694841e+01 +1.8005747275e+02 1.8993740975e+02 1.0566000000e-01 0.0000e+00 1.0000e+00
       13  1    1    2    0    0 -4.5189056341e+01 +9.1961931519e+01 +2.7519898706e+02 2.9365548063e+02 1.0566000000e-01 0.0000e+00 -1.0000e+00
<mgrwt>
<rscale>  0 0.23426575E+03</rscale>
<asrwt>0</asrwt>
<pdfrwt beam="1">  1        2 0.58735808E-02 0.23426575E+03</pdfrwt>
<pdfrwt beam="2">  1       -2 0.14599388E+00 0.23426575E+03</pdfrwt>
<totfact> 0.43055393E+02</totfact>
</mgrwt>
</event>
<event>
 6      1 +1.8175624e-03 5.06210000e+02 7.81860800e-03 1.01217100e-01
        1 -1    0    0  501    0 +0.0000000000e+00 +0.0000000000e+00 +3.6500591975e+02 3.6500591978e+02 5.0400000000e-03 0.0000e+00 -1.0000e+00
       -1 -1    0    0    0  501 -0.0000000000e+00 -0.0000000000e+00 -1.7550987910e+02 1.7550987917e+02 5.0400000000e-03 0.0000e+00 1.0000e+00
      -13  1    1    2    0    0 +1.9058989335e+02 +8.5344569378e+01 +8.1102887183e+01 2.2402208025e+02 1.0566000000e-01 0.0000e+00 1.0000e+00
       13  1    1    2    0    0 -1.3990619356e+02 +1.3949374818e+01 +1.0040366079e+01 1.4095796597e+02 1.0566000000e-01 0.0000e+00 -1.0000e+00
      -13  1    1    2    0    0 +1.0681669387e+01 -9.7180450140e+00 -1.3414646795e+01 1.9710463528e+01 1.0566000000e-01 0.0000e+00 1.0000e+00
       13  1    1    2    0    0 -6.1365369175e+01 -8.9575899182e+01 +1.1176743418e+02 1.5582528920e+02 1.0566000000e-01 0.0000e+00 -1.0000e+00
<mgrwt>
<rscale>  0 0.50621002E+03</rscale>
<asrwt>0</asrwt>
<pdfrwt beam="1">  1        1 0.91251479E-01 0.50621002E+03</pdfrwt>
<pdfrwt beam="2">  1       -1 0.43877470E-01 0.50621002E+03</pdfrwt>
<totfact> 0.18419351E+02</totfact>
</mgrwt>
</event>
<event>
 6      1 +1.8175624e-03 2.76374500e+02 7.81860800e-03 1.09768600e-01
        1 -1    0    0  501    0 +0.0000000000e+00 +0.0000000000e+00 +9.3637175257e+01 9.3637175392e+01 5.0400000000e-03 0.0000e+00 -1.0000e+00
       -1 -1    0    0    0  501 -0.0000000000e+00 -0.0000000000e+00 -2.0393308711e+02 2.0393308718e+02 5.0400000000e-03 0.0000e+00 1.0000e+00
      -13  1    1    2    0    0 +5.2466457414e+00 -1.2682710046e+01 +2.5674098888e+01 2.9112693853e+01 1.0566000000e-01 0.0000e+00 1.0000e+00
       13  1    1    2    0    0 +4.4377123480e+01 -5.5293879262e+01 -6.6824982183e+01 9.7428597342e+01 1.0566000000e-01 0.0000e+00 -1.0000e+00
      -13  1    1    2    0    0 +1.7865177578e+01 +3.8303443020e+01 -8.5622475115e+01 9.5485798556e+01 1.0566000000e-01 0.0000e+00 1.0000e+00
       13  1    1    2    0    0 -6.7488946799e+01 +2.9673146288e+01 +1.6477446552e+01 7.5543172819e+01 1.0566000000e-01 0.0000e+00 -1.0000e+00
<mgrwt>
<rscale>  0 0.27637452E+03</rscale>
<asrwt>0</asrwt>
<pdfrwt beam="1">  1        1 0.23409294E-01 0.27637452E+03</pdfrwt>
<pdfrwt beam="2">  1       -1 0.50983271E-01 0.27637452E+03</pdfrwt>
<totfact> 0.82610544E+02</totfact>
</mgrwt>
</event>
<event>
 6      1 +1.8175624e-03 1.97947800e+02 7.81860800e-03 1.15148200e-01
        2 -1    0    0  501    0 +0.0000000000e+00 +0.0000000000e+00 +9.3799053317e+01 9.3799053351e+01 2.5500000000e-03 0.0000e+00 1.0000e+00
       -2 -1    0    0    0  501 -0.0000000000e+00 -0.0000000000e+00 -1.0443426733e+02 1.0443426737e+02 2.5500000000e-03 0.0000e+00 -1.0000e+00
      -13  1    1    2    0    0 -2.6104320299e+01 +1.8218224194e+01 +4.0248093324e+01 5.1315294127e+01 1.0566000000e-01 0.0000e+00 -1.0000e+00
       13  1    1    2    0    0 -3.4914256729e+00 -1.5280892123e+01 +1.6369912341e+01 2.2664529807e+01 1.0566000000e-01 0.0000e+00 1.0000e+00
      -13  1    1    2    0    0 +7.9996065699e+00 +4.3472930187e+01 -5.6859100369e+01 7.2019843260e+01 1.0566000000e-01 0.0000e+00 -1.0000e+00
       13  1    1    2    0    0 +2.1596139403e+01 -4.6410262258e+01 -1.0394119313e+01 5.2233653523e+01 1.0566000000e-01 0.0000e+00 1.0000e+00
<mgrwt>
<rscale>  0 0.19794783E+03</rscale>
<asrwt>0</asrwt>
<pdfrwt beam="1">  1        2 0.23449763E-01 0.19794783E+03</pdfrwt>
<pdfrwt beam="2">  1       -2 0.26108567E-01 0.19794783E+03</pdfrwt>
<totfact> 0.29891482E+03</totfact>
</mgrwt>
</event>
<event>
 6      1 +1.8175624e-03 1.33636300e+02 7.81860800e-03 1.22215800e-01
       -2 -1    0    0    0  501 -0.0000000000e+00 +0.0000000000e+00 +7.5193846309e+01 7.5193846352e+01 2.5500000000e-03 0.0000e+00 -1.0000e+00
        2 -1    0    0  501    0 +0.0000000000e+00 -0.0000000000e+00 -5.9375409038e+01 5.9375409093e+01 2.5500000000e-03 0.0000e+00 1.0000e+00
      -13  1    1    2    0    0 +3.7937007653e+00 -2.6736368593e+01 +4.1542750141e+01 4.9548328169e+01 1.0566000000e-01 0.0000e+00 -1.0000e+00
       13  1    1    2    0    0 +2.0570111933e+01 +1.2570527818e+01 -1.4710017244e+00 2.4152074128e+01 1.0566000000e-01 0.0000e+00 1.0000e+00
      -13  1    1    2    0    0 -2.6213429392e+01 -1.2528001314e+01 -1.3368880513e+01 3.1981757731e+01 1.0566000000e-01 0.0000e+00 -1.0000e+00
       13  1    1    2    0    0 +1.8496166928e+00 +2.6693842089e+01 -1.0884430633e+01 2.8887095417e+01 1.0566000000e-01 0.0000e+00 1.0000e+00
<mgrwt>
<rscale>  0 0.13363630E+03</rscale>
<asrwt>0</asrwt>
<pdfrwt beam="1">  1        2 0.14843852E-01 0.13363630E+03</pdfrwt>
<pdfrwt beam="2">  1       -2 0.18798461E-01 0.13363630E+03</pdfrwt>
<totfact> 0.86829467E+03</totfact>
</mgrwt>
</event>
<event>
 6      1 +1.8175624e-03 6.36823100e+02 7.81860800e-03 9.83182400e-02
        2 -1    0    0  501    0 +0.0000000000e+00 +0.0000000000e+00 +1.2992904997e+03 1.2992904997e+03 2.5500000000e-03 0.0000e+00 -1.0000e+00
       -2 -1    0    0    0  501 -0.0000000000e+00 -0.0000000000e+00 -7.8031751744e+01 7.8031751786e+01 2.5500000000e-03 0.0000e+00 1.0000e+00
      -13  1    1    2    0    0 -4.6728276087e+01 -4.6105547343e+01 +6.5700039588e+01 9.2874967821e+01 1.0566000000e-01 0.0000e+00 1.0000e+00
       13  1    1    2    0    0 +3.6966367754e+01 +6.8032237998e+00 +7.5046504074e+01 8.3933218315e+01 1.0566000000e-01 0.0000e+00 -1.0000e+00
      -13  1    1    2    0    0 +4.4941881219e+01 -1.8996643751e+02 +8.5501486109e+02 8.7701621645e+02 1.0566000000e-01 0.0000e+00 1.0000e+00
       13  1    1    2    0    0 -3.5179972885e+01 +2.2926876105e+02 +2.2549734320e+02 3.2349784890e+02 1.0566000000e-01 0.0000e+00 -1.0000e+00
<mgrwt>
<rscale>  0 0.63682310E+03</rscale>
<asrwt>0</asrwt>
<pdfrwt beam="1">  1        2 0.32482262E+00 0.63682310E+03</pdfrwt>
<pdfrwt beam="2">  1       -2 0.19507938E-01 0.63682310E+03</pdfrwt>
<totfact> 0.13430780E+02</totfact>
</mgrwt>
</event>
<event>
 6      1 +1.8175624e-03 3.99645000e+02 7.81860800e-03 1.04390300e-01
       -2 -1    0    0    0  501 -0.0000000000e+00 +0.0000000000e+00 +3.3026270049e+02 3.3026270050e+02 2.5500000000e-03 0.0000e+00 1.0000e+00
        2 -1    0    0  501    0 +0.0000000000e+00 -0.0000000000e+00 -1.2090083414e+02 1.2090083417e+02 2.5500000000e-03 0.0000e+00 -1.0000e+00
      -13  1    1    2    0    0 -5.1492054859e+00 -4.5186890133e+01 +1.0807276016e+02 1.1725230066e+02 1.0566000000e-01 0.0000e+00 1.0000e+00
       13  1    1    2    0    0 +2.4117120571e+01 -1.0096609647e+02 -3.6258927242e+01 1.0995685113e+02 1.0566000000e-01 0.0000e+00 -1.0000e+00
      -13  1    1    2    0    0 -2.7809436667e+01 -1.5539979381e+00 +3.0611821438e+01 4.1386887454e+01 1.0566000000e-01 0.0000e+00 1.0000e+00
       13  1    1    2    0    0 +8.8415215821e+00 +1.4770698454e+02 +1.0693621199e+02 1.8256749543e+02 1.0566000000e-01 0.0000e+00 -1.0000e+00
<mgrwt>
<rscale>  0 0.39964502E+03</rscale>
<asrwt>0</asrwt>
<pdfrwt beam="1">  1        2 0.30225209E-01 0.39964502E+03</pdfrwt>
<pdfrwt beam="2">  1       -2 0.82565675E-01 0.39964502E+03</pdfrwt>
<totfact> 0.23119506E+02</totfact>
</mgrwt>
</event>
<event>
 6      1 +1.8175624e-03 3.22287500e+02 7.81860800e-03 1.07460100e-01
       -2 -1    0    0    0  501 -0.0000000000e+00 +0.0000000000e+00 +4.2367211237e+01 4.2367211314e+01 2.5500000000e-03 0.0000e+00 1.0000e+00
        2 -1    0    0  501    0 +0.0000000000e+00 -0.0000000000e+00 -6.1291039083e+02 6.1291039084e+02 2.5500000000e-03 0.0000e+00 -1.0000e+00
      -13  1    1    2    0    0 +6.0041164918e+00 -1.3798687483e+01 -3.4080564990e+00 1.5429815431e+01 1.0566000000e-01 0.0000e+00 -1.0000e+00
       13  1    1    2    0    0 -7.1652874090e+01 +7.8813640879e+01 -2.7708120707e+02 2.9684967716e+02 1.0566000000e-01 0.0000e+00 1.0000e+00
      -13  1    1    2    0    0 +5.1868397757e+01 +1.0333969851e+01 -1.1525959452e+01 5.4129294510e+01 1.0566000000e-01 0.0000e+00 1.0000e+00
       13  1    1    2    0    0 +1.3780359841e+01 -7.5348923247e+01 -2.7852795657e+02 2.8886881505e+02 1.0566000000e-01 0.0000e+00 -1.0000e+00
<mgrwt>
<rscale>  0 0.32228747E+03</rscale>
<asrwt>0</asrwt>
<pdfrwt beam="1">  1        2 0.15322757E+00 0.32228747E+03</pdfrwt>
<pdfrwt beam="2">  1       -2 0.10591805E-01 0.32228747E+03</pdfrwt>
<totfact> 0.15975698E+03</totfact>
</mgrwt>
</event>
<event>
 6      1 +1.8175624e-03 5.89820900e+02 7.81860800e-03 9.92675200e-02
       -1 -1    0    0    0  501 -0.0000000000e+00 +0.0000000000e+00 +2.8380886602e+02 2.8380886606e+02 5.0400000000e-03 0.0000e+00 1.0000e+00
        1 -1    0    0  501    0 +0.0000000000e+00 -0.0000000000e+00 -3.0644627077e+02 3.0644627081e+02 5.0400000000e-03 0.0000e+00 -1.0000e+00
      -13  1    1    2    0    0 -7.7988061895e+00 -4.6803543830e+01 -5.8394195972e+01 7.5241520322e+01 1.0566000000e-01 0.0000e+00 -1.0000e+00
       13  1    1    2    0    0 +3.5632066907e+01 -1.0269806967e+02 -3.7614468550e+01 1.1502781018e+02 1.0566000000e-01 0.0000e+00 1.0000e+00
      -13  1    1    2    0    0 -8.8368007928e+01 +1.5529497743e+02 +1.9470611010e+02 2.6426485827e+02 1.0566000000e-01 0.0000e+00 1.0000e+00
       13  1    1    2    0    0 +6.0534747210e+01 -5.7933639252e+00 -1.2133485033e+02 1.3572094811e+02 1.0566000000e-01 0.0000e+00 -1.0000e+00
<mgrwt>
<rscale>  0 0.58982088E+03</rscale>
<asrwt>0</asrwt>
<pdfrwt beam="1">  1        1 0.76611568E-01 0.58982088E+03</pdfrwt>
<pdfrwt beam="2">  1       -1 0.70952217E-01 0.58982088E+03</pdfrwt>
<totfact> 0.92207265E+01</totfact>
</mgrwt>
</event>
<event>
 6      1 +1.8175624e-03 3.57435300e+02 7.81860800e-03 1.05960400e-01
        1 -1    0    0  501    0 +0.0000000000e+00 +0.0000000000e+00 +8.6484238853e+02 8.6484238854e+02 5.0400000000e-03 0.0000e+00 -1.0000e+00
       -1 -1    0    0    0  501 -0.0000000000e+00 -0.0000000000e+00 -3.6931575600e+01 3.6931575944e+01 5.0400000000e-03 0.0000e+00 1.0000e+00
      -13  1    1    2    0    0 +1.2156833423e+02 -3.7110145951e+01 +2.6090971396e+02 2.9022390119e+02 1.0566000000e-01 0.0000e+00 1.0000e+00
       13  1    1    2    0    0 -6.0045129856e+01 +1.8684938017e+01 +6.6554862395e+01 9.1564760692e+01 1.0566000000e-01 0.0000e+00 -1.0000e+00
      -13  1    1    2    0    0 -3.9290229714e+01 -5.3225779956e+01 +2.2963370898e+02 2.3897354930e+02 1.0566000000e-01 0.0000e+00 1.0000e+00
       13  1    1    2    0    0 -2.2232974657e+01 +7.1650987891e+01 +2.7081252759e+02 2.8101175330e+02 1.0566000000e-01 0.0000e+00 -1.0000e+00
<mgrwt>
<rscale>  0 0.35743527E+03</rscale>
<asrwt>0</asrwt>
<pdfrwt beam="1">  1        1 0.21621059E+00 0.35743527E+03</pdfrwt>
<pdfrwt beam="2">  1       -1 0.92328941E-02 0.35743527E+03</pdfrwt>
<totfact> 0.56764103E+02</totfact>
</mgrwt>
</event>
<event>
 6      1 +1.8175624e-03 1.60867100e+02 7.81860800e-03 1.18772100e-01
        2 -1    0    0  501    0 +0.0000000000e+00 +0.0000000000e+00 +1.6072488169e+02 1.6072488171e+02 2.5500000000e-03 0.0000e+00 1.0000e+00
       -2 -1    0    0    0  501 -0.0000000000e+00 -0.0000000000e+00 -4.0252353847e+01 4.0252353928e+01 2.5500000000e-03 0.0000e+00 -1.0000e+00
      -13  1    1    2    0    0 +3.6778669033e+01 -2.9756458664e+00 +1.5839514281e+01 4.0155028836e+01 1.0566000000e-01 0.0000e+00 -1.0000e+00
       13  1    1    2    0    0 -2.7516695437e+01 +1.0197547104e+01 +2.3981289853e+01 3.7898178344e+01 1.0566000000e-01 0.0000e+00 1.0000e+00
      -13  1    1    2    0    0 +1.6856054628e+01 +3.6409781475e+01 +4.7694963090e+01 6.2326715242e+01 1.0566000000e-01 0.0000e+00 1.0000e+00
       13  1    1    2    0    0 -2.6118028223e+01 -4.3631682713e+01 +3.2956760621e+01 6.0597313219e+01 1.0566000000e-01 0.0000e+00 -1.0000e+00
<mgrwt>
<rscale>  0 0.16086709E+03</rscale>
<asrwt>0</asrwt>
<pdfrwt beam="1">  1        2 0.40181220E-01 0.16086709E+03</pdfrwt>
<pdfrwt beam="2">  1       -2 0.10063089E-01 0.16086709E+03</pdfrwt>
<totfact> 0.80210077E+03</totfact>
</mgrwt>
</event>
<event>
 6      1 +1.8175624e-03 1.52363100e+02 7.81860800e-03 1.19759900e-01
        1 -1    0    0  501    0 +0.0000000000e+00 +0.0000000000e+00 +1.7818168074e+02 1.7818168081e+02 5.0400000000e-03 0.0000e+00 -1.0000e+00
       -1 -1    0    0    0  501 -0.0000000000e+00 -0.0000000000e+00 -3.2571416524e+01 3.2571416914e+01 5.0400000000e-03 0.0000e+00 1.0000e+00
      -13  1    1    2    0    0 -3.2639195127e+00 +4.7634769847e+01 +2.2381243340e+01 5.2731922840e+01 1.0566000000e-01 0.0000e+00 1.0000e+00
       13  1    1    2    0    0 +1.7134344874e+01 -1.5377339741e+01 +7.0296791250e+01 7.3970929262e+01 1.0566000000e-01 0.0000e+00 -1.0000e+00
      -13  1    1    2    0    0 -1.2509927290e+01 +1.4102215342e+01 +1.6915315036e+01 2.5328043848e+01 1.0566000000e-01 0.0000e+00 1.0000e+00
       13  1    1    2    0    0 -1.3604980713e+00 -4.6359645447e+01 +3.6016914593e+01 5.8722201779e+01 1.0566000000e-01 0.0000e+00 -1.0000e+00
<mgrwt>
<rscale>  0 0.15236312E+03</rscale>
<asrwt>0</asrwt>
<pdfrwt beam="1">  1        1 0.44545420E-01 0.15236312E+03</pdfrwt>
<pdfrwt beam="2">  1       -1 0.81428543E-02 0.15236312E+03</pdfrwt>
<totfact> 0.73616156E+03</totfact>
</mgrwt>
</event>
<event>
 6      1 +1.8175624e-03 5.19649000e+02 7.81860800e-03 1.00877400e-01
       -1 -1    0    0    0  501 -0.0000000000e+00 +0.0000000000e+00 +3.5080482730e+02 3.5080482734e+02 5.0400000000e-03 0.0000e+00 1.0000e+00
        1 -1    0    0  501    0 +0.0000000000e+00 -0.0000000000e+00 -1.9243969102e+02 1.9243969108e+02 5.0400000000e-03 0.0000e+00 -1.0000e+00
      -13  1    1    2    0    0 -3.1590112507e+01 +9.5366662922e+01 +8.9107770384e+01 1.3428678830e+02 1.0566000000e-01 0.0000e+00 1.0000e+00
       13  1    1    2    0    0 -1.7227715024e+01 +5.1448165413e+01 +2.1606223452e+01 5.8399896791e+01 1.0566000000e-01 0.0000e+00 -1.0000e+00
      -13  1    1    2    0    0 +1.9295271167e+01 +1.9391131675e+01 +1.5044726322e+02 1.5291407277e+02 1.0566000000e-01 0.0000e+00 1.0000e+00
       13  1    1    2    0    0 +2.9522556365e+01 -1.6620596001e+02 -1.0279612078e+02 1.9764376056e+02 1.0566000000e-01 0.0000e+00 -1.0000e+00
<mgrwt>
<rscale>  0 0.51964901E+03</rscale>
<asrwt>0</asrwt>
<pdfrwt beam="1">  1        1 0.48109923E-01 0.51964901E+03</pdfrwt>
<pdfrwt beam="2">  1       -1 0.87701206E-01 0.51964901E+03</pdfrwt>
<totfact> 0.10967954E+02</totfact>
</mgrwt>
</event>
<event>
 6      1 +1.8175624e-03 1.35688300e+02 7.81860800e-03 1.21925100e-01
        2 -1    0    0  501    0 +0.0000000000e+00 +0.0000000000e+00 +9.0361682101e+01 9.0361682137e+01 2.5500000000e-03 0.0000e+00 -1.0000e+00
       -2 -1    0    0    0  501 -0.0000000000e+00 -0.0000000000e+00 -5.0937812577e+01 5.0937812640e+01 2.5500000000e-03 0.0000e+00 1.0000e+00
      -13  1    1    2    0    0 -1.7159509036e+01 +9.6380219727e+00 +7.6953815056e+00 2.1132209503e+01 1.0566000000e-01 0.0000e+00 1.0000e+00
       13  1    1    2    0    0 -3.8763901918e+01 +8.3452074520e+00 +3.7608453625e+01 5.4650613239e+01 1.0566000000e-01 0.0000e+00 -1.0000e+00
      -13  1    1    2    0    0 +3.3728556729e+01 -1.8795714156e+01 -1.5112253513e+01 4.1464271125e+01 1.0566000000e-01 0.0000e+00 1.0000e+00
       13  1    1    2    0    0 +2.2194854225e+01 +8.1248473106e-01 +9.2322879069e+00 2.4052400910e+01 1.0566000000e-01 0.0000e+00 -1.0000e+00
<mgrwt>
<rscale>  0 0.13568827E+03</rscale>
<asrwt>0</asrwt>
<pdfrwt beam="1">  1        2 0.22590420E-01 0.13568827E+03</pdfrwt>
<pdfrwt beam="2">  1       -2 0.12734453E-01 0.13568827E+03</pdfrwt>
<totfact> 0.10189874E+04</totfact>
</mgrwt>
</event>
<event>
 7      1 +1.8175624e-03 9.09197000e+01 7.81860800e-03 1.30064000e-01
       -2 -1    0    0    0  501 -0.0000000000e+00 +0.0000000000e+00 +1.3903168144e+01 1.3903168378e+01 2.5500000000e-03 0.0000e+00 1.0000e+00
        2 -1    0    0  501    0 +0.0000000000e+00 -0.0000000000e+00 -1.4864223910e+02 1.4864223912e+02 2.5500000000e-03 0.0000e+00 -1.0000e+00
       23  2    1    2    0    0 +1.7763568394e-15 +8.8817841970e-16 -1.3473907095e+02 1.6254540750e+02 9.0919702248e+01 0.0000e+00 0.0000e+00
      -13  1    3    3    0    0 +2.3041984740e+01 -9.3729307280e+00 -1.3593223504e+01 2.8347341682e+01 1.0566000000e-01 0.0000e+00 -1.0000e+00
       13  1    3    3    0    0 -1.5763500025e+01 +6.2408281528e+00 -6.4323931451e+01 6.6520787657e+01 1.0566000000e-01 0.0000e+00 1.0000e+00
      -13  1    3    3    0    0 +9.3415913185e+00 +1.3230888115e+01 -1.7725940278e+01 2.4011285918e+01 1.0566000000e-01 0.0000e+00 -1.0000e+00
       13  1    3    3    0    0 -1.6620076034e+01 -1.0098785540e+01 -3.9095975719e+01 4.3665992239e+01 1.0566000000e-01 0.0000e+00 1.0000e+00
<mgrwt>
<rscale>  0 0.90919702E+02</rscale>
<asrwt>0</asrwt>
<pdfrwt beam="1">  1        2 0.37160555E-01 0.90919702E+02</pdfrwt>
<pdfrwt beam="2">  1       -2 0.34757925E-02 0.90919702E+02</pdfrwt>
<totfact> 0.41251225E+04</totfact>
</mgrwt>
</event>
<event>
 6      1 +1.8175624e-03 3.14600600e+02 7.81860800e-03 1.07816100e-01
        2 -1    0    0  501    0 +0.0000000000e+00 +0.0000000000e+00 +7.1983508878e+02 7.1983508879e+02 2.5500000000e-03 0.0000e+00 -1.0000e+00
       -2 -1    0    0    0  501 -0.0000000000e+00 -0.0000000000e+00 -3.4373685528e+01 3.4373685623e+01 2.5500000000e-03 0.0000e+00 1.0000e+00
      -13  1    1    2    0    0 -1.0128690710e+02 +2.9953610179e+01 +1.0280002199e+02 1.4739101736e+02 1.0566000000e-01 0.0000e+00 -1.0000e+00
       13  1    1    2    0    0 -1.5322915288e+01 +2.4677555988e+01 +1.5645334220e+02 1.5912709685e+02 1.0566000000e-01 0.0000e+00 1.0000e+00
      -13  1    1    2    0    0 +9.2111864966e+01 -1.9608192257e+01 +3.0098219814e+02 3.1537179904e+02 1.0566000000e-01 0.0000e+00 1.0000e+00
       13  1    1    2    0    0 +2.4497957420e+01 -3.5022973911e+01 +1.2522584092e+02 1.3231886116e+02 1.0566000000e-01 0.0000e+00 -1.0000e+00
<mgrwt>
<rscale>  0 0.31460060E+03</rscale>
<asrwt>0</asrwt>
<pdfrwt beam="1">  1        2 0.17995877E+00 0.31460060E+03</pdfrwt>
<pdfrwt beam="2">  1       -2 0.85934214E-02 0.31460060E+03</pdfrwt>
<totfact> 0.17559817E+03</totfact>
</mgrwt>
</event>
<event>
 6      1 +1.8175624e-03 2.68937400e+02 7.81860800e-03 1.10188900e-01
        2 -1    0    0  501    0 +0.0000000000e+00 +0.0000000000e+00 +2.9513968590e+02 2.9513968591e+02 2.5500000000e-03 0.0000e+00 -1.0000e+00
       -2 -1    0    0    0  501 -0.0000000000e+00 -0.0000000000e+00 -6.1265345531e+01 6.1265345584e+01 2.5500000000e-03 0.0000e+00 1.0000e+00
      -13  1    1    2    0    0 -9.2608598819e+00 -1.8985488706e+01 +9.4428603546e+00 2.3138519462e+01 1.0566000000e-01 0.0000e+00 1.0000e+00
       13  1    1    2    0    0 -3.6523091064e+01 +9.1897871442e+01 +9.8352945848e+01 1.3947210502e+02 1.0566000000e-01 0.0000e+00 -1.0000e+00
      -13  1    1    2    0    0 +4.2956232824e+01 +2.4623209421e+01 +4.5580182998e+01 6.7298622770e+01 1.0566000000e-01 0.0000e+00 1.0000e+00
       13  1    1    2    0    0 +2.8277181224e+00 -9.7535592156e+01 +8.0498351165e+01 1.2649578424e+02 1.0566000000e-01 0.0000e+00 -1.0000e+00
<mgrwt>
<rscale>  0 0.26893743E+03</rscale>
<asrwt>0</asrwt>
<pdfrwt beam="1">  1        2 0.73784920E-01 0.26893743E+03</pdfrwt>
<pdfrwt beam="2">  1       -2 0.15316337E-01 0.26893743E+03</pdfrwt>
<totfact> 0.21520547E+03</totfact>
</mgrwt>
</event>
<event>
 6      1 +1.8175624e-03 2.25631700e+02 7.81860800e-03 1.12975300e-01
        2 -1    0    0  501    0 +0.0000000000e+00 +0.0000000000e+00 +6.4235664988e+02 6.4235664989e+02 2.5500000000e-03 0.0000e+00 1.0000e+00
       -2 -1    0    0    0  501 -0.0000000000e+00 -0.0000000000e+00 -1.9813623027e+01 1.9813623191e+01 2.5500000000e-03 0.0000e+00 -1.0000e+00
      -13  1    1    2    0    0 +1.3467858181e+01 +2.5357921805e+01 +1.6027253269e+02 1.6282414840e+02 1.0566000000e-01 0.0000e+00 1.0000e+00
       13  1    1    2    0    0 +1.9253417029e+01 -7.6726190846e+01 +2.4868042230e+02 2.6095893552e+02 1.0566000000e-01 0.0000e+00 -1.0000e+00
      -13  1    1    2    0    0 -4.7446072972e+01 -4.4542785267e+00 +8.5392663946e+01 9.7790023303e+01 1.0566000000e-01 0.0000e+00 1.0000e+00
       13  1    1    2    0    0 +1.4724797762e+01 +5.5822547567e+01 +1.2819740792e+02 1.4059716585e+02 1.0566000000e-01 0.0000e+00 -1.0000e+00
<mgrwt>
<rscale>  0 0.22563167E+03</rscale>
<asrwt>0</asrwt>
<pdfrwt beam="1">  1        2 0.16058915E+00 0.22563167E+03</pdfrwt>
<pdfrwt beam="2">  1       -2 0.49534060E-02 0.22563167E+03</pdfrwt>
<totfact> 0.48700373E+03</totfact>
</mgrwt>
</event>
<event>
 6      1 +1.8175624e-03 2.60824400e+02 7.81860800e-03 1.10664900e-01
       -2 -1    0    0    0  501 -0.0000000000e+00 +0.0000000000e+00 +3.4203380528e+01 3.4203380623e+01 2.5500000000e-03 0.0000e+00 1.0000e+00
        2 -1    0    0  501    0 +0.0000000000e+00 -0.0000000000e+00 -4.9724171679e+02 4.9724171679e+02 2.5500000000e-03 0.0000e+00 -1.0000e+00
      -13  1    1    2    0    0 +6.9308227107e+01 -4.4986787725e+00 -1.4771702763e+02 1.6323051146e+02 1.0566000000e-01 0.0000e+00 -1.0000e+00
       13  1    1    2    0    0 +7.4611765254e+00 +4.3482545514e+01 -1.9978499694e+01 4.8430904737e+01 1.0566000000e-01 0.0000e+00 1.0000e+00
      -13  1    1    2    0    0 -2.1652434936e+01 +1.5165100595e+01 -1.8257533941e+01 3.2127199136e+01 1.0566000000e-01 0.0000e+00 1.0000e+00
       13  1    1    2    0    0 -5.5116968697e+01 -5.4148967337e+01 -2.7708527499e+02 2.8765648208e+02 1.0566000000e-01 0.0000e+00 -1.0000e+00
<mgrwt>
<rscale>  0 0.26082444E+03</rscale>
<asrwt>0</asrwt>
<pdfrwt beam="1">  1        2 0.12431041E+00 0.26082444E+03</pdfrwt>
<pdfrwt beam="2">  1       -2 0.85508467E-02 0.26082444E+03</pdfrwt>
<totfact> 0.29724916E+03</totfact>
</mgrwt>
</event>
<event>
 6      1 +1.8175624e-03 2.85964400e+02 7.81860800e-03 1.09247500e-01
        2 -1    0    0  501    0 +0.0000000000e+00 +0.0000000000e+00 +1.2067160685e+02 1.2067160688e+02 2.5500000000e-03 0.0000e+00 1.0000e+00
       -2 -1    0    0    0  501 -0.0000000000e+00 -0.0000000000e+00 -1.6941770937e+02 1.6941770939e+02 2.5500000000e-03 0.0000e+00 -1.0000e+00
      -13  1    1    2    0    0 -6.4194276076e+01 +6.3149921853e+01 -3.6692334076e+01 9.7237627773e+01 1.0566000000e-01 0.0000e+00 -1.0000e+00
       13  1    1    2    0    0 -7.6388319881e+00 -3.4381190581e+01 -1.8525841293e+01 3.9794924043e+01 1.0566000000e-01 0.0000e+00 1.0000e+00
      -13  1    1    2    0    0 -2.0905633632e+01 -1.0934596229e+01 -4.1041722452e+01 4.7339677419e+01 1.0566000000e-01 0.0000e+00 -1.0000e+00
       13  1    1    2    0    0 +9.2738741696e+01 -1.7834135043e+01 +4.7513795301e+01 1.0571708704e+02 1.0566000000e-01 0.0000e+00 1.0000e+00
<mgrwt>
<rscale>  0 0.28596438E+03</rscale>
<asrwt>0</asrwt>
<pdfrwt beam="1">  1        2 0.30167902E-01 0.28596438E+03</pdfrwt>
<pdfrwt beam="2">  1       -2 0.42354427E-01 0.28596438E+03</pdfrwt>
<totfact> 0.93118166E+02</totfact>
</mgrwt>
</event>
<event>
 6      1 +1.8175624e-03 9.26181200e+02 7.81860800e-03 9.39343300e-02
       -1 -1    0    0    0  501 -0.0000000000e+00 +0.0000000000e+00 +1.1007834590e+02 1.1007834602e+02 5.0400000000e-03 0.0000e+00 1.0000e+00
        1 -1    0    0  501    0 +0.0000000000e+00 -0.0000000000e+00 -1.9481841300e+03 1.9481841300e+03 5.0400000000e-03 0.0000e+00 -1.0000e+00
      -13  1    1    2    0    0 +1.6899940554e+02 -3.1985211123e+02 -6.0451010828e+02 7.0448467287e+02 1.0566000000e-01 0.0000e+00 1.0000e+00
       13  1    1    2    0    0 -1.8479886666e+01 +3.0257750940e+02 -5.1181829083e+02 5.9485513312e+02 1.0566000000e-01 0.0000e+00 -1.0000e+00
      -13  1    1    2    0    0 -1.4956427201e+02 +5.0702783747e+01 -7.0310158473e+02 7.2061924298e+02 1.0566000000e-01 0.0000e+00 1.0000e+00
       13  1    1    2    0    0 -9.5524687130e-01 -3.3428181914e+01 -1.8675800207e+01 3.8303427001e+01 1.0566000000e-01 0.0000e+00 -1.0000e+00
<mgrwt>
<rscale>  0 0.92618116E+03</rscale>
<asrwt>0</asrwt>
<pdfrwt beam="1">  1        1 0.48704592E+00 0.92618116E+03</pdfrwt>
<pdfrwt beam="2">  1       -1 0.27519593E-01 0.92618116E+03</pdfrwt>
<totfact> 0.55614400E+00</totfact>
</mgrwt>
</event>
<event>
 7      1 +1.8175624e-03 9.99380500e+01 7.81860800e-03 1.28042600e-01
       -2 -1    0    0    0  501 -0.0000000000e+00 +0.0000000000e+00 +8.8489467442e+00 8.8489471116e+00 2.5500000000e-03 0.0000e+00 1.0000e+00
        2 -1    0    0  501    0 +0.0000000000e+00 -0.0000000000e+00 -2.8216956264e+02 2.8216956266e+02 2.5500000000e-03 0.0000e+00 -1.0000e+00
       23  2    1    2    0    0 +0.0000000000e+00 +3.5527136788e-15 -2.7332061590e+02 2.9101850977e+02 9.9938050568e+01 0.0000e+00 0.0000e+00
      -13  1    3    3    0    0 -1.0492960410e+01 +2.9401209889e+01 -1.2125099870e+02 1.2520522837e+02 1.0566000000e-01 0.0000e+00 -1.0000e+00
       13  1    3    3    0    0 -1.8544785035e+01 -6.3758629749e+00 -7.6486636168e+01 7.8960606362e+01 1.0566000000e-01 0.0000e+00 1.0000e+00
      -13  1    3    3    0    0 +1.3816451401e+01 -7.3538789107e+00 -1.2305941146e+01 1.9910329376e+01 1.0566000000e-01 0.0000e+00 1.0000e+00
       13  1    3    3    0    0 +1.5221294044e+01 -1.5671468004e+01 -6.3277039884e+01 6.6942345659e+01 1.0566000000e-01 0.0000e+00 -1.0000e+00
<mgrwt>
<rscale>  0 0.99938051E+02</rscale>
<asrwt>0</asrwt>
<pdfrwt beam="1">  1        2 0.70542361E-01 0.99938051E+02</pdfrwt>
<pdfrwt beam="2">  1       -2 0.22122377E-02 0.99938051E+02</pdfrwt>
<totfact> 0.40980287E+04</totfact>
</mgrwt>
</event>
<event>
 6      1 +1.8175624e-03 1.79958900e+02 7.81860800e-03 1.16784300e-01
       -2 -1    0    0    0  501 -0.0000000000e+00 +0.0000000000e+00 +2.4639877198e+01 2.4639877329e+01 2.5500000000e-03 0.0000e+00 -1.0000e+00
        2 -1    0    0  501    0 +0.0000000000e+00 -0.0000000000e+00 -3.2858542966e+02 3.2858542967e+02 2.5500000000e-03 0.0000e+00 1.0000e+00
      -13  1    1    2    0    0 -8.2477276966e+00 -1.0611942621e+01 +1.7874588535e+00 1.3558927374e+01 1.0566000000e-01 0.0000e+00 -1.0000e+00
       13  1    1    2    0    0 +2.0160472085e+01 +3.5142069464e+01 -1.1031193271e+02 1.1751656625e+02 1.0566000000e-01 0.0000e+00 1.0000e+00
      -13  1    1    2    0    0 +4.2331337753e+01 -2.7357333804e+01 -7.9453936563e+01 9.4092003211e+01 1.0566000000e-01 0.0000e+00 -1.0000e+00
       13  1    1    2    0    0 -5.4244082142e+01 +2.8272069616e+00 -1.1596714205e+02 1.2805781017e+02 1.0566000000e-01 0.0000e+00 1.0000e+00
<mgrwt>
<rscale>  0 0.17995894E+03</rscale>
<asrwt>0</asrwt>
<pdfrwt beam="1">  1        2 0.82146343E-01 0.17995894E+03</pdfrwt>
<pdfrwt beam="2">  1       -2 0.61599704E-02 0.17995894E+03</pdfrwt>
<totfact> 0.79888675E+03</totfact>
</mgrwt>
</event>
<event>
 6      1 +1.8175624e-03 6.98216400e+02 7.81860800e-03 9.72028700e-02
       -2 -1    0    0    0  501 -0.0000000000e+00 +0.0000000000e+00 +3.4749502301e+02 3.4749502302e+02 2.5500000000e-03 0.0000e+00 -1.0000e+00
        2 -1    0    0  501    0 +0.0000000000e+00 -0.0000000000e+00 -3.5072883337e+02 3.5072883338e+02 2.5500000000e-03 0.0000e+00 1.0000e+00
      -13  1    1    2    0    0 -1.1720835979e+02 -1.5723214103e+01 -2.5709372799e+01 1.2102066798e+02 1.0566000000e-01 0.0000e+00 1.0000e+00
       13  1    1    2    0    0 -8.6514219197e+00 +2.0352181739e+01 +2.3282964981e+01 3.2111773933e+01 1.0566000000e-01 0.0000e+00 -1.0000e+00
      -13  1    1    2    0    0 -6.6088694399e+01 +2.1844509293e+02 +7.6698641782e+01 2.4076683112e+02 1.0566000000e-01 0.0000e+00 1.0000e+00
       13  1    1    2    0    0 +1.9194847610e+02 -2.2307406056e+02 -7.7506044325e+01 3.0432458337e+02 1.0566000000e-01 0.0000e+00 -1.0000e+00
<mgrwt>
<rscale>  0 0.69821637E+03</rscale>
<asrwt>0</asrwt>
<pdfrwt beam="1">  1        2 0.87682208E-01 0.69821637E+03</pdfrwt>
<pdfrwt beam="2">  1       -2 0.86873756E-01 0.69821637E+03</pdfrwt>
<totfact> 0.61422738E+01</totfact>
</mgrwt>
</event>
<event>
 6      1 +1.8175624e-03 3.92905600e+02 7.81860800e-03 1.04626400e-01
       -3 -1    0    0    0  501 -0.0000000000e+00 +0.0000000000e+00 +9.7775396512e+01 9.7775448678e+01 1.0100000000e-01 0.0000e+00 1.0000e+00
        3 -1    0    0  501    0 +0.0000000000e+00 -0.0000000000e+00 -3.9471771303e+02 3.9471772595e+02 1.0100000000e-01 0.0000e+00 -1.0000e+00
      -13  1    1    2    0    0 +7.8211401585e+00 -3.5545473137e+01 -2.4564845573e+01 4.3910063721e+01 1.0566000000e-01 0.0000e+00 -1.0000e+00
       13  1    1    2    0    0 +2.4898170926e+01 +8.2451314866e+01 -2.1008178209e+00 8.6154296690e+01 1.0566000000e-01 0.0000e+00 1.0000e+00
      -13  1    1    2    0    0 +5.9705407441e+01 +5.9309468445e+01 -4.1586548488e+01 9.3871193154e+01 1.0566000000e-01 0.0000e+00 1.0000e+00
       13  1    1    2    0    0 -9.2424718525e+01 -1.0621531017e+02 -2.2869010463e+02 2.6855762106e+02 1.0566000000e-01 0.0000e+00 -1.0000e+00
<mgrwt>
<rscale>  0 0.39290557E+03</rscale>
<asrwt>0</asrwt>
<pdfrwt beam="1">  1        3 0.98679432E-01 0.39290557E+03</pdfrwt>
<pdfrwt beam="2">  1       -3 0.24443858E-01 0.39290557E+03</pdfrwt>
<totfact> 0.37115556E+01</totfact>
</mgrwt>
</event>
<event>
 6      1 +1.8175624e-03 5.64229400e+02 7.81860800e-03 9.98253000e-02
       -2 -1    0    0    0  501 -0.0000000000e+00 +0.0000000000e+00 +1.5169078473e+02 1.5169078475e+02 2.5500000000e-03 0.0000e+00 1.0000e+00
        2 -1    0    0  501    0 +0.0000000000e+00 -0.0000000000e+00 -5.2467725733e+02 5.2467725734e+02 2.5500000000e-03 0.0000e+00 -1.0000e+00
      -13  1    1    2    0    0 +1.2090873895e+01 +4.5795099390e+01 +8.2938401051e+01 9.5510051265e+01 1.0566000000e-01 0.0000e+00 1.0000e+00
       13  1    1    2    0    0 +4.9898540401e+01 -2.0773456701e+01 +8.1813736438e+00 5.4665774267e+01 1.0566000000e-01 0.0000e+00 -1.0000e+00
      -13  1    1    2    0    0 +8.3563848425e+01 +1.0584814988e+00 -8.4698564234e+01 1.1898695346e+02 1.0566000000e-01 0.0000e+00 1.0000e+00
       13  1    1    2    0    0 -1.4555326272e+02 -2.6080124188e+01 -3.7940768306e+02 4.0720526310e+02 1.0566000000e-01 0.0000e+00 -1.0000e+00
<mgrwt>
<rscale>  0 0.56422940E+03</rscale>
<asrwt>0</asrwt>
<pdfrwt beam="1">  1        2 0.13116931E+00 0.56422940E+03</pdfrwt>
<pdfrwt beam="2">  1       -2 0.37922697E-01 0.56422940E+03</pdfrwt>
<totfact> 0.21171736E+02</totfact>
</mgrwt>
</event>
<event>
 6      1 +1.8175624e-03 1.33746800e+02 7.81860800e-03 1.22200000e-01
       -1 -1    0    0    0  501 -0.0000000000e+00 +0.0000000000e+00 +2.3623508384e+01 2.3623508922e+01 5.0400000000e-03 0.0000e+00 -1.0000e+00
        1 -1    0    0  501    0 +0.0000000000e+00 -0.0000000000e+00 -1.8930508226e+02 1.8930508233e+02 5.0400000000e-03 0.0000e+00 1.0000e+00
      -13  1    1    2    0    0 +1.0650502591e+00 +1.2510869465e+01 -8.1507588224e+00 1.4970044096e+01 1.0566000000e-01 0.0000e+00 -1.0000e+00
       13  1    1    2    0    0 -8.3147361797e+00 -1.9603514129e+01 -8.0909834527e+01 8.3665076891e+01 1.0566000000e-01 0.0000e+00 1.0000e+00
      -13  1    1    2    0    0 -1.5476563486e+01 +2.3408567239e+01 -8.1228915946e+01 8.5939705535e+01 1.0566000000e-01 0.0000e+00 1.0000e+00
       13  1    1    2    0    0 +2.2726249407e+01 -1.6315922575e+01 +4.6079354167e+00 2.8353764731e+01 1.0566000000e-01 0.0000e+00 -1.0000e+00
<mgrwt>
<rscale>  0 0.13374678E+03</rscale>
<asrwt>0</asrwt>
<pdfrwt beam="1">  1        1 0.47326266E-01 0.13374678E+03</pdfrwt>
<pdfrwt beam="2">  1       -1 0.59058777E-02 0.13374678E+03</pdfrwt>
<totfact> 0.10957398E+04</totfact>
</mgrwt>
</event>
<event>
 6      1 +1.8175624e-03 4.78137400e+02 7.81860800e-03 1.01964800e-01
        2 -1    0    0  501    0 +0.0000000000e+00 +0.0000000000e+00 +1.6177947238e+03 1.6177947238e+03 2.5500000000e-03 0.0000e+00 -1.0000e+00
       -2 -1    0    0    0  501 -0.0000000000e+00 -0.0000000000e+00 -3.5328241331e+01 3.5328241423e+01 2.5500000000e-03 0.0000e+00 1.0000e+00
      -13  1    1    2    0    0 +1.5412357756e+02 -2.6589749809e+01 +5.5067257086e+02 5.7245207958e+02 1.0566000000e-01 0.0000e+00 1.0000e+00
       13  1    1    2    0    0 -1.4180187595e+01 -4.9804916929e-01 +8.2070879923e+01 8.3288452192e+01 1.0566000000e-01 0.0000e+00 -1.0000e+00
      -13  1    1    2    0    0 -4.1309227432e+01 +1.3542285098e+02 +6.2963828690e+02 6.4536050726e+02 1.0566000000e-01 0.0000e+00 1.0000e+00
       13  1    1    2    0    0 -9.8634162531e+01 -1.0833505200e+02 +3.2008474476e+02 3.5202192617e+02 1.0566000000e-01 0.0000e+00 -1.0000e+00
<mgrwt>
<rscale>  0 0.47813740E+03</rscale>
<asrwt>0</asrwt>
<pdfrwt beam="1">  1        2 0.40444866E+00 0.47813740E+03</pdfrwt>
<pdfrwt beam="2">  1       -2 0.88320609E-02 0.47813740E+03</pdfrwt>
<totfact> 0.26454844E+02</totfact>
</mgrwt>
</event>
<event>
 6      1 +1.8175624e-03 2.69240100e+02 7.81860800e-03 1.10171500e-01
       -2 -1    0    0    0  501 -0.0000000000e+00 +0.0000000000e+00 +4.1594973007e+01 4.1594973086e+01 2.5500000000e-03 0.0000e+00 -1.0000e+00
        2 -1    0    0  501    0 +0.0000000000e+00 -0.0000000000e+00 -4.3569104434e+02 4.3569104434e+02 2.5500000000e-03 0.0000e+00 1.0000e+00
      -13  1    1    2    0    0 -5.1686159232e+01 +1.6637045303e+01 -1.5307371483e+02 1.6241866786e+02 1.0566000000e-01 0.0000e+00 1.0000e+00
       13  1    1    2    0    0 +7.6094959093e+01 +6.2195695604e+01 -8.4134046909e+01 1.2937270332e+02 1.0566000000e-01 0.0000e+00 1.0000e+00
      -13  1    1    2    0    0 -2.1749763925e+01 -9.9826026227e+00 -1.6375613297e+01 2.8997869936e+01 1.0566000000e-01 0.0000e+00 -1.0000e+00
       13  1    1    2    0    0 -2.6590359362e+00 -6.8850138284e+01 -1.4051269629e+02 1.5649677632e+02 1.0566000000e-01 0.0000e+00 -1.0000e+00
<mgrwt>
<rscale>  0 0.26924010E+03</rscale>
<asrwt>0</asrwt>
<pdfrwt beam="1">  1        2 0.10892275E+00 0.26924010E+03</pdfrwt>
<pdfrwt beam="2">  1       -2 0.10398745E-01 0.26924010E+03</pdfrwt>
<totfact> 0.25719757E+03</totfact>
</mgrwt>
</event>
<event>
 6      1 +1.8175624e-03 5.06438800e+02 7.81860800e-03 1.01211200e-01
        2 -1    0    0  501    0 +0.0000000000e+00 +0.0000000000e+00 +7.1199943323e+02 7.1199943324e+02 2.5500000000e-03 0.0000e+00 -1.0000e+00
       -2 -1    0    0    0  501 -0.0000000000e+00 -0.0000000000e+00 -9.0056324751e+01 9.0056324787e+01 2.5500000000e-03 0.0000e+00 1.0000e+00
      -13  1    1    2    0    0 -2.2117994641e+01 +2.1430694958e+01 +6.7646322188e+01 7.4327090908e+01 1.0566000000e-01 0.0000e+00 1.0000e+00
       13  1    1    2    0    0 +1.1151446365e+02 +9.3495768276e+01 +1.9276263357e+02 2.4152510916e+02 1.0566000000e-01 0.0000e+00 -1.0000e+00
      -13  1    1    2    0    0 -1.4340732080e+02 -1.0794864549e+02 +7.4990575207e+01 1.9453063321e+02 1.0566000000e-01 0.0000e+00 1.0000e+00
       13  1    1    2    0    0 +5.4010851789e+01 -6.9778177477e+00 +2.8654357752e+02 2.9167292475e+02 1.0566000000e-01 0.0000e+00 -1.0000e+00
<mgrwt>
<rscale>  0 0.50643875E+03</rscale>
<asrwt>0</asrwt>
<pdfrwt beam="1">  1        2 0.17799985E+00 0.50643875E+03</pdfrwt>
<pdfrwt beam="2">  1       -2 0.22514082E-01 0.50643875E+03</pdfrwt>
<totfact> 0.35616209E+02</totfact>
</mgrwt>
</event>
<event>
 6      1 +1.8175624e-03 5.45122300e+02 7.81860800e-03 1.00262900e-01
        2 -1    0    0  501    0 +0.0000000000e+00 +0.0000000000e+00 +3.0104066811e+02 3.0104066812e+02 2.5500000000e-03 0.0000e+00 -1.0000e+00
       -2 -1    0    0    0  501 -0.0000000000e+00 -0.0000000000e+00 -2.4677587553e+02 2.4677587554e+02 2.5500000000e-03 0.0000e+00 1.0000e+00
      -13  1    1    2    0    0 +2.4811920335e+01 -7.9943782229e+01 -6.8582681061e+01 1.0821383929e+02 1.0566000000e-01 0.0000e+00 1.0000e+00
       13  1    1    2    0    0 +6.5756393304e+01 -3.0903050647e+01 -4.0518285956e+01 8.3190410869e+01 1.0566000000e-01 0.0000e+00 -1.0000e+00
      -13  1    1    2    0    0 -2.8283910204e+01 -5.4114867751e+01 -5.0493993150e+01 7.9234165588e+01 1.0566000000e-01 0.0000e+00 1.0000e+00
       13  1    1    2    0    0 -6.2284403436e+01 +1.6496170063e+02 +2.1385975274e+02 2.7717812791e+02 1.0566000000e-01 0.0000e+00 -1.0000e+00
<mgrwt>
<rscale>  0 0.54512228E+03</rscale>
<asrwt>0</asrwt>
<pdfrwt beam="1">  1        2 0.75260166E-01 0.54512228E+03</pdfrwt>
<pdfrwt beam="2">  1       -2 0.61693969E-01 0.54512228E+03</pdfrwt>
<totfact> 0.15739927E+02</totfact>
</mgrwt>
</event>
<event>
 6      1 +1.8175624e-03 3.58548300e+02 7.81860800e-03 1.05916000e-01
       -1 -1    0    0    0  501 -0.0000000000e+00 +0.0000000000e+00 +1.9019785454e+02 1.9019785461e+02 5.0400000000e-03 0.0000e+00 1.0000e+00
        1 -1    0    0  501    0 +0.0000000000e+00 -0.0000000000e+00 -1.6897779177e+02 1.6897779184e+02 5.0400000000e-03 0.0000e+00 -1.0000e+00
      -13  1    1    2    0    0 -6.1821980071e+01 -3.2190098570e+01 +1.2815825888e+02 1.4588594911e+02 1.0566000000e-01 0.0000e+00 1.0000e+00
       13  1    1    2    0    0 -7.8050148766e-01 -3.7146631401e+01 -2.3938985082e+01 4.4199180737e+01 1.0566000000e-01 0.0000e+00 -1.0000e+00
      -13  1    1    2    0    0 +3.0633907084e+01 +7.4662121108e+01 -7.7120816178e-01 8.0706099631e+01 1.0566000000e-01 0.0000e+00 1.0000e+00
       13  1    1    2    0    0 +3.1968574474e+01 -5.3253911365e+00 -8.2228002863e+01 8.8384416973e+01 1.0566000000e-01 0.0000e+00 -1.0000e+00
<mgrwt>
<rscale>  0 0.35854826E+03</rscale>
<asrwt>0</asrwt>
<pdfrwt beam="1">  1        1 0.42244448E-01 0.35854826E+03</pdfrwt>
<pdfrwt beam="2">  1       -1 0.47549464E-01 0.35854826E+03</pdfrwt>
<totfact> 0.44294087E+02</totfact>
</mgrwt>
</event>
<event>
 6      1 +1.8175624e-03 2.58207600e+02 7.81860800e-03 1.10822500e-01
       -2 -1    0    0    0  501 -0.0000000000e+00 +0.0000000000e+00 +1.0695959923e+02 1.0695959926e+02 2.5500000000e-03 0.0000e+00 -1.0000e+00
        2 -1    0    0  501    0 +0.0000000000e+00 -0.0000000000e+00 -1.5583260400e+02 1.5583260402e+02 2.5500000000e-03 0.0000e+00 1.0000e+00
      -13  1    1    2    0    0 +3.9356055848e+01 -7.3517661615e+01 +1.3384099651e+01 8.4456444329e+01 1.0566000000e-01 0.0000e+00 -1.0000e+00
       13  1    1    2    0    0 +2.0959513160e+01 +2.2620032519e+01 +3.5979350559e+01 4.7386621464e+01 1.0566000000e-01 0.0000e+00 -1.0000e+00
      -13  1    1    2    0    0 -1.4359104343e+01 +1.8164884661e+01 -5.5601038774e+01 6.0229839690e+01 1.0566000000e-01 0.0000e+00 1.0000e+00
       13  1    1    2    0    0 -4.5956464665e+01 +3.2732744434e+01 -4.2635416198e+01 7.0719297798e+01 1.0566000000e-01 0.0000e+00 1.0000e+00
<mgrwt>
<rscale>  0 0.25820761E+03</rscale>
<asrwt>0</asrwt>
<pdfrwt beam="1">  1        2 0.38958151E-01 0.25820761E+03</pdfrwt>
<pdfrwt beam="2">  1       -2 0.26739900E-01 0.25820761E+03</pdfrwt>
<totfact> 0.16529963E+03</totfact>
</mgrwt>
</event>
<event>
 6      1 +1.8175624e-03 1.84696000e+02 7.81860800e-03 1.16333400e-01
       -1 -1    0    0    0  501 -0.0000000000e+00 +0.0000000000e+00 +4.1974532399e+02 4.1974532402e+02 5.0400000000e-03 0.0000e+00 1.0000e+00
        1 -1    0    0  501    0 +0.0000000000e+00 -0.0000000000e+00 -2.0317435943e+01 2.0317436568e+01 5.0400000000e-03 0.0000e+00 -1.0000e+00
      -13  1    1    2    0    0 -1.5902567153e+01 +4.5281450185e+01 +1.0348594937e+02 1.1407302159e+02 1.0566000000e-01 0.0000e+00 1.0000e+00
       13  1    1    2    0    0 -4.7177465443e-01 -2.5980161284e+01 +2.7833369725e+01 3.8077539127e+01 1.0566000000e-01 0.0000e+00 -1.0000e+00
      -13  1    1    2    0    0 -1.3904064488e+01 -5.5659849400e+01 +1.3700768335e+02 1.4853436742e+02 1.0566000000e-01 0.0000e+00 1.0000e+00
       13  1    1    2    0    0 +3.0278406295e+01 +3.6358560499e+01 +1.3110088560e+02 1.3937783245e+02 1.0566000000e-01 0.0000e+00 -1.0000e+00
<mgrwt>
<rscale>  0 0.18469595E+03</rscale>
<asrwt>0</asrwt>
<pdfrwt beam="1">  1        1 0.50793593E-02 0.18469595E+03</pdfrwt>
<pdfrwt beam="2">  1       -1 0.10493633E+00 0.18469595E+03</pdfrwt>
<totfact> 0.14538808E+03</totfact>
</mgrwt>
</event>
<event>
 6      1 +1.8175624e-03 4.30433300e+02 7.81860800e-03 1.03372300e-01
        2 -1    0    0  501    0 +0.0000000000e+00 +0.0000000000e+00 +4.6821842760e+02 4.6821842761e+02 2.5500000000e-03 0.0000e+00 -1.0000e+00
       -2 -1    0    0    0  501 -0.0000000000e+00 -0.0000000000e+00 -9.8924351788e+01 9.8924351821e+01 2.5500000000e-03 0.0000e+00 1.0000e+00
      -13  1    1    2    0    0 +5.2041936909e+01 -5.3273801393e+01 -7.6909676183e-01 7.4478612944e+01 1.0566000000e-01 0.0000e+00 1.0000e+00
       13  1    1    2    0    0 -1.3152756723e+02 -9.7475369205e+00 +3.4639999444e+02 3.7065817505e+02 1.0566000000e-01 0.0000e+00 -1.0000e+00
      -13  1    1    2    0    0 +7.7734306249e+01 +4.6673756543e+01 +3.9752696296e+01 9.9001767382e+01 1.0566000000e-01 0.0000e+00 1.0000e+00
       13  1    1    2    0    0 +1.7513240741e+00 +1.6347581770e+01 -1.6089518160e+01 2.3004224056e+01 1.0566000000e-01 0.0000e+00 -1.0000e+00
<mgrwt>
<rscale>  0 0.43043329E+03</rscale>
<asrwt>0</asrwt>
<pdfrwt beam="1">  1        2 0.11705460E+00 0.43043329E+03</pdfrwt>
<pdfrwt beam="2">  1       -2 0.24731089E-01 0.43043329E+03</pdfrwt>
<totfact> 0.54644095E+02</totfact>
</mgrwt>
</event>
<event>
 6      1 +1.8175624e-03 3.15741600e+02 7.81860800e-03 1.07762600e-01
       -1 -1    0    0    0  501 -0.0000000000e+00 +0.0000000000e+00 +4.4527724536e+01 4.4527724821e+01 5.0400000000e-03 0.0000e+00 1.0000e+00
        1 -1    0    0  501    0 +0.0000000000e+00 -0.0000000000e+00 -5.5972293124e+02 5.5972293126e+02 5.0400000000e-03 0.0000e+00 -1.0000e+00
      -13  1    1    2    0    0 +1.9682057639e+01 +1.1640831745e+02 -2.1713936141e+02 2.4715944894e+02 1.0566000000e-01 0.0000e+00 1.0000e+00
       13  1    1    2    0    0 -2.3079838960e+00 -7.2395747277e+01 -1.9004328392e+02 2.0337878931e+02 1.0566000000e-01 0.0000e+00 -1.0000e+00
      -13  1    1    2    0    0 -2.4200408236e+01 +2.6717009550e+01 -2.2352539012e+01 4.2415864042e+01 1.0566000000e-01 0.0000e+00 -1.0000e+00
       13  1    1    2    0    0 +6.8263344924e+00 -7.0729579724e+01 -8.5660022371e+01 1.1129655380e+02 1.0566000000e-01 0.0000e+00 1.0000e+00
<mgrwt>
<rscale>  0 0.31574159E+03</rscale>
<asrwt>0</asrwt>
<pdfrwt beam="1">  1        1 0.13993071E+00 0.31574159E+03</pdfrwt>
<pdfrwt beam="2">  1       -1 0.11131933E-01 0.31574159E+03</pdfrwt>
<totfact> 0.96791434E+02</totfact>
</mgrwt>
</event>
<event>
 6      1 +1.8175624e-03 1.60139000e+02 7.81860800e-03 1.18854000e-01
       -2 -1    0    0    0  501 -0.0000000000e+00 +0.0000000000e+00 +1.8931591207e+01 1.8931591379e+01 2.5500000000e-03 0.0000e+00 -1.0000e+00
        2 -1    0    0  501    0 +0.0000000000e+00 -0.0000000000e+00 -3.3864694835e+02 3.3864694836e+02 2.5500000000e-03 0.0000e+00 1.0000e+00
      -13  1    1    2    0    0 +3.0145812429e+01 +4.2142490935e+01 -1.0386925841e+02 1.1607580952e+02 1.0566000000e-01 0.0000e+00 -1.0000e+00
       13  1    1    2    0    0 -4.4562240864e+00 +2.8368987573e+01 -5.1971706377e+01 5.9377831022e+01 1.0566000000e-01 0.0000e+00 1.0000e+00
      -13  1    1    2    0    0 -1.2806396422e+00 -3.0392426212e+01 -8.5593339183e+01 9.0838155449e+01 1.0566000000e-01 0.0000e+00 -1.0000e+00
       13  1    1    2    0    0 -2.4408948701e+01 -4.0119052297e+01 -7.8281053175e+01 9.1286743748e+01 1.0566000000e-01 0.0000e+00 1.0000e+00
<mgrwt>
<rscale>  0 0.16013901E+03</rscale>
<asrwt>0</asrwt>
<pdfrwt beam="1">  1        2 0.84661718E-01 0.16013901E+03</pdfrwt>
<pdfrwt beam="2">  1       -2 0.47328989E-02 0.16013901E+03</pdfrwt>
<totfact> 0.11434024E+04</totfact>
</mgrwt>
</event>
<event>
 6      1 +1.8175624e-03 3.11298000e+02 7.81860800e-03 1.07972500e-01
        2 -1    0    0  501    0 +0.0000000000e+00 +0.0000000000e+00 +1.0971715803e+02 1.0971715806e+02 2.5500000000e-03 0.0000e+00 -1.0000e+00
       -2 -1    0    0    0  501 -0.0000000000e+00 -0.0000000000e+00 -2.2080972686e+02 2.2080972687e+02 2.5500000000e-03 0.0000e+00 1.0000e+00
      -13  1    1    2    0    0 -4.5568032097e+01 +3.7582569712e+00 +1.9261636747e+01 4.9614431962e+01 1.0566000000e-01 0.0000e+00 -1.0000e+00
       13  1    1    2    0    0 -1.4992689906e+01 +9.7540579960e+01 -3.9624214343e+01 1.0634394678e+02 1.0566000000e-01 0.0000e+00 1.0000e+00
      -13  1    1    2    0    0 +7.7488501848e+00 -2.1012663097e+01 -7.3629212854e+01 7.6960047032e+01 1.0566000000e-01 0.0000e+00 1.0000e+00
       13  1    1    2    0    0 +5.2811871819e+01 -8.0286173834e+01 -1.7100778380e+01 9.7608459158e+01 1.0566000000e-01 0.0000e+00 -1.0000e+00
<mgrwt>
<rscale>  0 0.31129803E+03</rscale>
<asrwt>0</asrwt>
<pdfrwt beam="1">  1        2 0.27429290E-01 0.31129803E+03</pdfrwt>
<pdfrwt beam="2">  1       -2 0.55202431E-01 0.31129803E+03</pdfrwt>
<totfact> 0.61094510E+02</totfact>
</mgrwt>
</event>
<event>
 6      1 +1.8175624e-03 3.79988600e+02 7.81860800e-03 1.05093800e-01
        1 -1    0    0  501    0 +0.0000000000e+00 +0.0000000000e+00 +6.8377044730e+02 6.8377044732e+02 5.0400000000e-03 0.0000e+00 1.0000e+00
       -1 -1    0    0    0  501 -0.0000000000e+00 -0.0000000000e+00 -5.2792314779e+01 5.2792315019e+01 5.0400000000e-03 0.0000e+00 -1.0000e+00
      -13  1    1    2    0    0 -2.3223607899e+01 -4.1656348355e+01 -2.0832705572e+01 5.2044213008e+01 1.0566000000e-01 0.0000e+00 -1.0000e+00
       13  1    1    2    0    0 +6.7563849325e+01 +5.1852971824e+01 +4.2983073091e+02 4.3818725771e+02 1.0566000000e-01 0.0000e+00 1.0000e+00
      -13  1    1    2    0    0 -4.8003487662e+01 +3.1023014576e+01 +1.7306953906e+02 1.8226310316e+02 1.0566000000e-01 0.0000e+00 -1.0000e+00
       13  1    1    2    0    0 +3.6632462364e+00 -4.1219638044e+01 +4.8910568131e+01 6.4068188459e+01 1.0566000000e-01 0.0000e+00 1.0000e+00
<mgrwt>
<rscale>  0 0.37998855E+03</rscale>
<asrwt>0</asrwt>
<pdfrwt beam="1">  1        1 0.17094261E+00 0.37998855E+03</pdfrwt>
<pdfrwt beam="2">  1       -1 0.13198079E-01 0.37998855E+03</pdfrwt>
<totfact> 0.51926520E+02</totfact>
</mgrwt>
</event>
<event>
 6      1 +1.8175624e-03 1.53993600e+02 7.81860800e-03 1.19565000e-01
        4 -1    0    0  501    0 +0.0000000000e+00 +0.0000000000e+00 +1.3353084156e+02 1.3353688085e+02 1.2700000000e+00 0.0000e+00 -1.0000e+00
       -4 -1    0    0    0  501 -0.0000000000e+00 -0.0000000000e+00 -4.4381910781e+01 4.4400077755e+01 1.2700000000e+00 0.0000e+00 1.0000e+00
      -13  1    1    2    0    0 +1.5414165986e+01 -1.4777971691e+00 -9.6728856202e+00 1.8258046932e+01 1.0566000000e-01 0.0000e+00 1.0000e+00
       13  1    1    2    0    0 -3.3577912604e+01 +2.4171335957e+01 +1.5196275957e+01 4.4075703781e+01 1.0566000000e-01 0.0000e+00 1.0000e+00
      -13  1    1    2    0    0 +4.1866080473e+01 -1.5287290893e+01 +7.8465074813e+01 9.0239952829e+01 1.0566000000e-01 0.0000e+00 -1.0000e+00
       13  1    1    2    0    0 -2.3702333855e+01 -7.4062478945e+00 +5.1604656310e+00 2.5363255067e+01 1.0566000000e-01 0.0000e+00 -1.0000e+00
<mgrwt>
<rscale>  0 0.15399360E+03</rscale>
<asrwt>0</asrwt>
<pdfrwt beam="1">  1        4 0.33385736E-01 0.15399360E+03</pdfrwt>
<pdfrwt beam="2">  1       -4 0.11098504E-01 0.15399360E+03</pdfrwt>
<totfact> 0.93284173E+02</totfact>
</mgrwt>
</event>
<event>
 7      1 +1.8175624e-03 1.21399600e+02 7.81860800e-03 1.24080600e-01
        1 -1    0    0  501    0 +0.0000000000e+00 +0.0000000000e+00 +8.9653685684e+01 8.9653685826e+01 5.0400000000e-03 0.0000e+00 -1.0000e+00
       -1 -1    0    0    0  501 -0.0000000000e+00 -0.0000000000e+00 -4.1096674443e+01 4.1096674752e+01 5.0400000000e-03 0.0000e+00 1.0000e+00
       23  2    1    2    0    0 +1.2767564783e-15 +0.0000000000e+00 +4.8557011241e+01 1.3075036058e+02 1.2139964353e+02 0.0000e+00 0.0000e+00
      -13  1    3    3    0    0 +3.0396894348e+01 +1.1029220167e+01 -1.9659653137e+01 3.7843467191e+01 1.0566000000e-01 0.0000e+00 1.0000e+00
       13  1    3    3    0    0 -1.7790762848e+01 +1.3115496566e+01 +5.8457903458e+01 6.2496920993e+01 1.0566000000e-01 0.0000e+00 -1.0000e+00
      -13  1    3    3    0    0 -1.2210107853e+01 -1.3812688703e+01 +6.8624266163e+00 1.9671836877e+01 1.0566000000e-01 0.0000e+00 1.0000e+00
       13  1    3    3    0    0 -3.9602364707e-01 -1.0332028030e+01 +2.8963343038e+00 1.0738135517e+01 1.0566000000e-01 0.0000e+00 -1.0000e+00
<mgrwt>
<rscale>  0 0.12139964E+03</rscale>
<asrwt>0</asrwt>
<pdfrwt beam="1">  1        1 0.22413421E-01 0.12139964E+03</pdfrwt>
<pdfrwt beam="2">  1       -1 0.10274169E-01 0.12139964E+03</pdfrwt>
<totfact> 0.11947731E+04</totfact>
</mgrwt>
</event>
<event>
 6      1 +1.8175624e-03 1.97012200e+02 7.81860800e-03 1.15228500e-01
        2 -1    0    0  501    0 +0.0000000000e+00 +0.0000000000e+00 +3.1209976963e+01 3.1209977068e+01 2.5500000000e-03 0.0000e+00 -1.0000e+00
       -2 -1    0    0    0  501 -0.0000000000e+00 -0.0000000000e+00 -3.1090871219e+02 3.1090871220e+02 2.5500000000e-03 0.0000e+00 1.0000e+00
      -13  1    1    2    0    0 -1.4165547872e+01 -2.5723910426e+01 -9.6797016229e+01 1.0115362489e+02 1.0566000000e-01 0.0000e+00 1.0000e+00
       13  1    1    2    0    0 -2.4994912222e+01 -1.0644229541e+01 -3.1310206332e+01 4.1453412937e+01 1.0566000000e-01 0.0000e+00 1.0000e+00
      -13  1    1    2    0    0 +4.7328404878e+01 +7.3846232885e+01 -1.2553180101e+02 1.5313878754e+02 1.0566000000e-01 0.0000e+00 -1.0000e+00
       13  1    1    2    0    0 -8.1679447838e+00 -3.7478092918e+01 -2.6059711657e+01 4.6372863902e+01 1.0566000000e-01 0.0000e+00 -1.0000e+00
<mgrwt>
<rscale>  0 0.19701222E+03</rscale>
<asrwt>0</asrwt>
<pdfrwt beam="1">  1        2 0.78024952E-02 0.19701222E+03</pdfrwt>
<pdfrwt beam="2">  1       -2 0.77727168E-01 0.19701222E+03</pdfrwt>
<totfact> 0.13149792E+03</totfact>
</mgrwt>
</event>
<event>
 6      1 +1.8175624e-03 3.29496500e+02 7.81860800e-03 1.07136000e-01
        4 -1    0    0  501    0 +0.0000000000e+00 +0.0000000000e+00 +1.2297526792e+02 1.2298182556e+02 1.2700000000e+00 0.0000e+00 1.0000e+00
       -4 -1    0    0    0  501 -0.0000000000e+00 -0.0000000000e+00 -2.2069659710e+02 2.2070025118e+02 1.2700000000e+00 0.0000e+00 -1.0000e+00
      -13  1    1    2    0    0 +4.9718461334e+01 -7.4549605814e+01 -4.2824282310e+01 9.9315152136e+01 1.0566000000e-01 0.0000e+00 -1.0000e+00
       13  1    1    2    0    0 -5.4444231631e+01 +2.9034307420e+01 -2.4213157855e+01 6.6283131660e+01 1.0566000000e-01 0.0000e+00 -1.0000e+00
      -13  1    1    2    0    0 -1.2492697481e+01 -6.0892762412e+01 +9.8217341200e+00 6.2932294013e+01 1.0566000000e-01 0.0000e+00 1.0000e+00
       13  1    1    2    0    0 +1.7218467778e+01 +1.0640806081e+02 -4.0505623139e+01 1.1515149893e+02 1.0566000000e-01 0.0000e+00 1.0000e+00
<mgrwt>
<rscale>  0 0.32949645E+03</rscale>
<asrwt>0</asrwt>
<pdfrwt beam="1">  1        4 0.30745094E-01 0.32949645E+03</pdfrwt>
<pdfrwt beam="2">  1       -4 0.55175425E-01 0.32949645E+03</pdfrwt>
<totfact> 0.60274807E+01</totfact>
</mgrwt>
</event>
<event>
 6      1 +1.8175624e-03 5.26963700e+02 7.81860800e-03 1.00697100e-01
        1 -1    0    0  501    0 +0.0000000000e+00 +0.0000000000e+00 +8.1717748302e+02 8.1717748304e+02 5.0400000000e-03 0.0000e+00 -1.0000e+00
       -1 -1    0    0    0  501 -0.0000000000e+00 -0.0000000000e+00 -8.4954236133e+01 8.4954236282e+01 5.0400000000e-03 0.0000e+00 1.0000e+00
      -13  1    1    2    0    0 +7.6917507015e+01 +3.0162327637e+01 +1.5933250288e+02 1.7947959921e+02 1.0566000000e-01 0.0000e+00 -1.0000e+00
       13  1    1    2    0    0 -1.1978283198e+01 +1.2403609829e+01 -8.5483958846e+00 1.9246169525e+01 1.0566000000e-01 0.0000e+00 1.0000e+00
      -13  1    1    2    0    0 +9.0726826263e+01 -1.1439420034e+02 +6.6047614853e+01 1.6024883359e+02 1.0566000000e-01 0.0000e+00 1.0000e+00
       13  1    1    2    0    0 -1.5566605008e+02 +7.1828262875e+01 +5.1539152503e+02 5.4315711699e+02 1.0566000000e-01 0.0000e+00 -1.0000e+00
<mgrwt>
<rscale>  0 0.52696371E+03</rscale>
<asrwt>0</asrwt>
<pdfrwt beam="1">  1        1 0.20429437E+00 0.52696371E+03</pdfrwt>
<pdfrwt beam="2">  1       -1 0.21238559E-01 0.52696371E+03</pdfrwt>
<totfact> 0.16577921E+02</totfact>
</mgrwt>
</event>
<event>
 6      1 +1.8175624e-03 1.58223700e+02 7.81860800e-03 1.19071700e-01
       -2 -1    0    0    0  501 -0.0000000000e+00 +0.0000000000e+00 +3.9589446640e+01 3.9589446722e+01 2.5500000000e-03 0.0000e+00 1.0000e+00
        2 -1    0    0  501    0 +0.0000000000e+00 -0.0000000000e+00 -1.5808982546e+02 1.5808982549e+02 2.5500000000e-03 0.0000e+00 -1.0000e+00
      -13  1    1    2    0    0 +1.8611237130e+01 +3.5678340424e+01 +6.0704934798e+00 4.0696242800e+01 1.0566000000e-01 0.0000e+00 1.0000e+00
       13  1    1    2    0    0 -2.5401574209e+01 -6.7763681281e+00 -1.0384793351e+02 1.0712405703e+02 1.0566000000e-01 0.0000e+00 -1.0000e+00
      -13  1    1    2    0    0 -4.5080922541e+00 -2.7550100227e+01 -2.0500452634e+00 2.7991869675e+01 1.0566000000e-01 0.0000e+00 1.0000e+00
       13  1    1    2    0    0 +1.1298429333e+01 -1.3518720688e+00 -1.8672893534e+01 2.1867102699e+01 1.0566000000e-01 0.0000e+00 -1.0000e+00
<mgrwt>
<rscale>  0 0.15822375E+03</rscale>
<asrwt>0</asrwt>
<pdfrwt beam="1">  1        2 0.39522455E-01 0.15822375E+03</pdfrwt>
<pdfrwt beam="2">  1       -2 0.98973621E-02 0.15822375E+03</pdfrwt>
<totfact> 0.83711314E+03</totfact>
</mgrwt>
</event>
<event>
 6      1 +1.8175624e-03 2.16388900e+02 7.81860800e-03 1.13660400e-01
       -1 -1    0    0    0  501 -0.0000000000e+00 +0.0000000000e+00 +2.3737030361e+01 2.3737030896e+01 5.0400000000e-03 0.0000e+00 -1.0000e+00
        1 -1    0    0  501    0 +0.0000000000e+00 -0.0000000000e+00 -4.9315516516e+02 4.9315516519e+02 5.0400000000e-03 0.0000e+00 1.0000e+00
      -13  1    1    2    0    0 +1.5202917999e+01 +4.9838297066e+01 -6.8584778641e+01 8.6132848527e+01 1.0566000000e-01 0.0000e+00 -1.0000e+00
       13  1    1    2    0    0 -4.2144081007e+01 -4.1810788442e+00 -7.7813624563e+01 8.8592191054e+01 1.0566000000e-01 0.0000e+00 1.0000e+00
      -13  1    1    2    0    0 +4.2423179567e+00 +3.1661573030e+01 -8.0310855593e+01 8.6430880815e+01 1.0566000000e-01 0.0000e+00 -1.0000e+00
       13  1    1    2    0    0 +2.2698845051e+01 -7.7318791251e+01 -2.4270887600e+02 2.5573627569e+02 1.0566000000e-01 0.0000e+00 1.0000e+00
<mgrwt>
<rscale>  0 0.21638890E+03</rscale>
<asrwt>0</asrwt>
<pdfrwt beam="1">  1        1 0.12328876E+00 0.21638890E+03</pdfrwt>
<pdfrwt beam="2">  1       -1 0.59342593E-02 0.21638890E+03</pdfrwt>
<totfact> 0.31006366E+03</totfact>
</mgrwt>
</event>
<event>
 6      1 +1.8175624e-03 4.61036300e+02 7.81860800e-03 1.02448100e-01
        2 -1    0    0  501    0 +0.0000000000e+00 +0.0000000000e+00 +1.0641226066e+03 1.0641226066e+03 2.5500000000e-03 0.0000e+00 1.0000e+00
       -2 -1    0    0    0  501 -0.0000000000e+00 -0.0000000000e+00 -4.9936546316e+01 4.9936546381e+01 2.5500000000e-03 0.0000e+00 -1.0000e+00
      -13  1    1    2    0    0 -8.2080100833e+01 -6.5599682229e+01 +5.4137834890e+01 1.1820058203e+02 1.0566000000e-01 0.0000e+00 -1.0000e+00
       13  1    1    2    0    0 +4.0530269022e+01 +5.9182364203e+00 +7.9918759947e+01 8.9803939696e+01 1.0566000000e-01 0.0000e+00 1.0000e+00
      -13  1    1    2    0    0 -7.0854845602e+01 +6.8870067154e+01 +3.2962198933e+02 3.4411358925e+02 1.0566000000e-01 0.0000e+00 -1.0000e+00
       13  1    1    2    0    0 +1.1240467741e+02 -9.1886213456e+00 +5.5050747609e+02 5.6194104198e+02 1.0566000000e-01 0.0000e+00 1.0000e+00
<mgrwt>
<rscale>  0 0.46103626E+03</rscale>
<asrwt>0</asrwt>
<pdfrwt beam="1">  1        2 0.26603066E+00 0.46103626E+03</pdfrwt>
<pdfrwt beam="2">  1       -2 0.12484136E-01 0.46103626E+03</pdfrwt>
<totfact> 0.46838218E+02</totfact>
</mgrwt>
</event>
<event>
 6      1 +1.8175624e-03 4.97327800e+02 7.81860800e-03 1.01447900e-01
        2 -1    0    0  501    0 +0.0000000000e+00 +0.0000000000e+00 +4.8240738953e+02 4.8240738954e+02 2.5500000000e-03 0.0000e+00 -1.0000e+00
       -2 -1    0    0    0  501 -0.0000000000e+00 -0.0000000000e+00 -1.2817744476e+02 1.2817744478e+02 2.5500000000e-03 0.0000e+00 1.0000e+00
      -13  1    1    2    0    0 -2.9425742936e+01 +4.4496284378e+01 -1.1309375184e+02 1.2504399842e+02 1.0566000000e-01 0.0000e+00 1.0000e+00
       13  1    1    2    0    0 -2.8442542083e+01 -2.8472029334e+01 +1.9596461641e+02 2.0005443435e+02 1.0566000000e-01 0.0000e+00 -1.0000e+00
      -13  1    1    2    0    0 +2.5562153516e+01 +1.5996763189e+01 +4.2261979313e+01 5.1917301398e+01 1.0566000000e-01 0.0000e+00 1.0000e+00
       13  1    1    2    0    0 +3.2306131502e+01 -3.2021018233e+01 +2.2909710089e+02 2.3356910015e+02 1.0566000000e-01 0.0000e+00 -1.0000e+00
<mgrwt>
<rscale>  0 0.49732785E+03</rscale>
<asrwt>0</asrwt>
<pdfrwt beam="1">  1        2 0.12060185E+00 0.49732785E+03</pdfrwt>
<pdfrwt beam="2">  1       -2 0.32044362E-01 0.49732785E+03</pdfrwt>
<totfact> 0.32679944E+02</totfact>
</mgrwt>
</event>
<event>
 6      1 +1.8175624e-03 1.74924800e+02 7.81860800e-03 1.17280700e-01
        2 -1    0    0  501    0 +0.0000000000e+00 +0.0000000000e+00 +1.9401638311e+02 1.9401638313e+02 2.5500000000e-03 0.0000e+00 1.0000e+00
       -2 -1    0    0    0  501 -0.0000000000e+00 -0.0000000000e+00 -3.9427969273e+01 3.9427969356e+01 2.5500000000e-03 0.0000e+00 -1.0000e+00
      -13  1    1    2    0    0 +2.8396290904e+01 -4.2616859006e+00 +9.5120794916e+01 9.9360394994e+01 1.0566000000e-01 0.0000e+00 1.0000e+00
       13  1    1    2    0    0 -1.3833134874e+01 -1.1378296026e+01 -1.7480657854e+01 2.5028100286e+01 1.0566000000e-01 0.0000e+00 -1.0000e+00
      -13  1    1    2    0    0 +1.7612136307e+00 +3.2944087156e+01 +5.1144967106e+00 3.3385385915e+01 1.0566000000e-01 0.0000e+00 -1.0000e+00
       13  1    1    2    0    0 -1.6324369661e+01 -1.7304105230e+01 +7.1833780064e+01 7.5670471288e+01 1.0566000000e-01 0.0000e+00 1.0000e+00
<mgrwt>
<rscale>  0 0.17492481E+03</rscale>
<asrwt>0</asrwt>
<pdfrwt beam="1">  1        2 0.48504095E-01 0.17492481E+03</pdfrwt>
<pdfrwt beam="2">  1       -2 0.98569925E-02 0.17492481E+03</pdfrwt>
<totfact> 0.68139492E+03</totfact>
</mgrwt>
</event>
<event>
 6      1 +1.8175624e-03 4.48977600e+02 7.81860800e-03 1.02802700e-01
       -2 -1    0    0    0  501 -0.0000000000e+00 +0.0000000000e+00 +9.2515373096e+01 9.2515373131e+01 2.5500000000e-03 0.0000e+00 -1.0000e+00
        2 -1    0    0  501    0 +0.0000000000e+00 -0.0000000000e+00 -5.4472266733e+02 5.4472266734e+02 2.5500000000e-03 0.0000e+00 1.0000e+00
      -13  1    1    2    0    0 -8.1876645298e+01 -1.4992682331e+02 -9.4870683193e+01 1.9540290450e+02 1.0566000000e-01 0.0000e+00 -1.0000e+00
       13  1    1    2    0    0 +2.5464571840e+01 -2.4726404122e+01 -1.1168440638e+02 1.1718898102e+02 1.0566000000e-01 0.0000e+00 -1.0000e+00
      -13  1    1    2    0    0 +7.7618331949e+01 +7.5332530201e+01 -1.5155931592e+02 1.8619836994e+02 1.0566000000e-01 0.0000e+00 1.0000e+00
       13  1    1    2    0    0 -2.1206258491e+01 +9.9320697235e+01 -9.4092888746e+01 1.3844778501e+02 1.0566000000e-01 0.0000e+00 1.0000e+00
<mgrwt>
<rscale>  0 0.44897760E+03</rscale>
<asrwt>0</asrwt>
<pdfrwt beam="1">  1        2 0.13618066E+00 0.44897760E+03</pdfrwt>
<pdfrwt beam="2">  1       -2 0.23128845E-01 0.44897760E+03</pdfrwt>
<totfact> 0.50388329E+02</totfact>
</mgrwt>
</event>
<event>
 6      1 +1.8175624e-03 2.41279300e+02 7.81860800e-03 1.11894400e-01
       -2 -1    0    0    0  501 -0.0000000000e+00 +0.0000000000e+00 +1.0488059480e+02 1.0488059483e+02 2.5500000000e-03 0.0000e+00 1.0000e+00
        2 -1    0    0  501    0 +0.0000000000e+00 -0.0000000000e+00 -1.3876663273e+02 1.3876663276e+02 2.5500000000e-03 0.0000e+00 -1.0000e+00
      -13  1    1    2    0    0 -4.2459406943e+01 -1.5704367758e+01 +1.8734068379e+01 4.8993927039e+01 1.0566000000e-01 0.0000e+00 1.0000e+00
       13  1    1    2    0    0 +2.7317174525e+01 -3.8503663845e+01 -7.5957552757e+01 8.9433333486e+01 1.0566000000e-01 0.0000e+00 -1.0000e+00
      -13  1    1    2    0    0 +1.1067995826e+01 -2.2789117943e+01 +8.3212250288e+00 2.6666427924e+01 1.0566000000e-01 0.0000e+00 1.0000e+00
       13  1    1    2    0    0 +4.0742365914e+00 +7.6997149546e+01 +1.5016221418e+01 7.8553539142e+01 1.0566000000e-01 0.0000e+00 -1.0000e+00
<mgrwt>
<rscale>  0 0.24127932E+03</rscale>
<asrwt>0</asrwt>
<pdfrwt beam="1">  1        2 0.34691658E-01 0.24127932E+03</pdfrwt>
<pdfrwt beam="2">  1       -2 0.26220149E-01 0.24127932E+03</pdfrwt>
<totfact> 0.19387601E+03</totfact>
</mgrwt>
</event>
<event>
 6      1 +1.8175624e-03 2.40626000e+02 7.81860800e-03 1.11937600e-01
       -4 -1    0    0    0  501 -0.0000000000e+00 +0.0000000000e+00 +6.9302534692e+01 6.9314170375e+01 1.2700000000e+00 0.0000e+00 -1.0000e+00
        4 -1    0    0  501    0 +0.0000000000e+00 -0.0000000000e+00 -2.0883892744e+02 2.0884278900e+02 1.2700000000e+00 0.0000e+00 1.0000e+00
      -13  1    1    2    0    0 -6.1523999889e+01 +4.2417358651e+01 +2.5487360780e+01 7.8956010543e+01 1.0566000000e-01 0.0000e+00 -1.0000e+00
       13  1    1    2    0    0 +3.9218686200e+01 +1.0901861354e+01 -1.1272581865e+02 1.1985022854e+02 1.0566000000e-01 0.0000e+00 1.0000e+00
      -13  1    1    2    0    0 +4.8364592908e+00 -2.0228960895e+01 -2.7423148714e+01 3.4418635168e+01 1.0566000000e-01 0.0000e+00 -1.0000e+00
       13  1    1    2    0    0 +1.7468854398e+01 -3.3090259110e+01 -2.4874786171e+01 4.4932085118e+01 1.0566000000e-01 0.0000e+00 1.0000e+00
<mgrwt>
<rscale>  0 0.24062604E+03</rscale>
<asrwt>0</asrwt>
<pdfrwt beam="1">  1        4 0.52211668E-01 0.24062604E+03</pdfrwt>
<pdfrwt beam="2">  1       -4 0.17327571E-01 0.24062604E+03</pdfrwt>
<totfact> 0.18906539E+02</totfact>
</mgrwt>
</event>
<event>
 6      1 +1.8175624e-03 3.33028700e+02 7.81860800e-03 1.06980500e-01
       -1 -1    0    0    0  501 -0.0000000000e+00 +0.0000000000e+00 +2.6027006116e+02 2.6027006121e+02 5.0400000000e-03 0.0000e+00 1.0000e+00
        1 -1    0    0  501    0 +0.0000000000e+00 -0.0000000000e+00 -1.0653179483e+02 1.0653179495e+02 5.0400000000e-03 0.0000e+00 -1.0000e+00
      -13  1    1    2    0    0 +1.3887460768e+02 +2.1223960102e+01 +4.2100994166e+01 1.4665987186e+02 1.0566000000e-01 0.0000e+00 1.0000e+00
       13  1    1    2    0    0 -3.5204401053e+01 -1.2246079776e+01 +1.5841126005e+00 3.7307330381e+01 1.0566000000e-01 0.0000e+00 -1.0000e+00
      -13  1    1    2    0    0 -6.8852425963e+01 -5.4434553320e+01 +5.6148405029e+01 1.0419420189e+02 1.0566000000e-01 0.0000e+00 1.0000e+00
       13  1    1    2    0    0 -3.4817780665e+01 +4.5456672995e+01 +5.3904754527e+01 7.8640452026e+01 1.0566000000e-01 0.0000e+00 -1.0000e+00
<mgrwt>
<rscale>  0 0.33302875E+03</rscale>
<asrwt>0</asrwt>
<pdfrwt beam="1">  1        1 0.26632949E-01 0.33302875E+03</pdfrwt>
<pdfrwt beam="2">  1       -1 0.65067515E-01 0.33302875E+03</pdfrwt>
<totfact> 0.43835402E+02</totfact>
</mgrwt>
</event>
<event>
 6      1 +1.8175624e-03 5.65425000e+02 7.81860800e-03 9.97985400e-02
       -2 -1    0    0    0  501 -0.0000000000e+00 +0.0000000000e+00 +3.4536501383e+02 3.4536501384e+02 2.5500000000e-03 0.0000e+00 -1.0000e+00
        2 -1    0    0  501    0 +0.0000000000e+00 -0.0000000000e+00 -2.3142574640e+02 2.3142574642e+02 2.5500000000e-03 0.0000e+00 1.0000e+00
      -13  1    1    2    0    0 +3.3268434049e+01 +2.2594867721e+01 -5.0426161855e+01 6.4499036542e+01 1.0566000000e-01 0.0000e+00 -1.0000e+00
       13  1    1    2    0    0 +1.2671023306e+02 +9.2128140855e+01 +5.2189672390e+01 1.6512677120e+02 1.0566000000e-01 0.0000e+00 1.0000e+00
      -13  1    1    2    0    0 -2.3374852686e+02 -8.8004880302e+01 +7.8802616161e+01 2.6190283741e+02 1.0566000000e-01 0.0000e+00 -1.0000e+00
       13  1    1    2    0    0 +7.3769859752e+01 -2.6718128275e+01 +3.3373140734e+01 8.5262115108e+01 1.0566000000e-01 0.0000e+00 1.0000e+00
<mgrwt>
<rscale>  0 0.56542499E+03</rscale>
<asrwt>0</asrwt>
<pdfrwt beam="1">  1        2 0.57856437E-01 0.56542499E+03</pdfrwt>
<pdfrwt beam="2">  1       -2 0.86341253E-01 0.56542499E+03</pdfrwt>
<totfact> 0.10113385E+02</totfact>
</mgrwt>
</event>
<event>
 6      1 +1.8175624e-03 4.88593700e+02 7.81860800e-03 1.01680000e-01
        2 -1    0    0  501    0 +0.0000000000e+00 +0.0000000000e+00 +1.9178246338e+02 1.9178246340e+02 2.5500000000e-03 0.0000e+00 -1.0000e+00
       -2 -1    0    0    0  501 -0.0000000000e+00 -0.0000000000e+00 -3.1119090078e+02 3.1119090079e+02 2.5500000000e-03 0.0000e+00 1.0000e+00
      -13  1    1    2    0    0 +1.6488708434e+02 +2.6970776225e+01 -1.3657330764e+02 2.1579493246e+02 1.0566000000e-01 0.0000e+00 1.0000e+00
       13  1    1    2    0    0 +1.0356613112e+01 -5.8889812893e+01 +1.6524441234e+01 6.2034972555e+01 1.0566000000e-01 0.0000e+00 1.0000e+00
      -13  1    1    2    0    0 +6.6262278430e+00 +4.2283566767e+01 +3.6347293499e+00 4.2953804668e+01 1.0566000000e-01 0.0000e+00 -1.0000e+00
       13  1    1    2    0    0 -1.8186992530e+02 -1.0364530099e+01 -2.9943003485e+00 1.8218965451e+02 1.0566000000e-01 0.0000e+00 -1.0000e+00
<mgrwt>
<rscale>  0 0.48859373E+03</rscale>
<asrwt>0</asrwt>
<pdfrwt beam="1">  1        2 0.47945616E-01 0.48859373E+03</pdfrwt>
<pdfrwt beam="2">  1       -2 0.77797725E-01 0.48859373E+03</pdfrwt>
<totfact> 0.15805424E+02</totfact>
</mgrwt>
</event>
<event>
 6      1 +1.8175624e-03 2.63086600e+02 7.81860800e-03 1.10530300e-01
       -2 -1    0    0    0  501 -0.0000000000e+00 +0.0000000000e+00 +2.3965433373e+01 2.3965433508e+01 2.5500000000e-03 0.0000e+00 1.0000e+00
        2 -1    0    0  501    0 +0.0000000000e+00 -0.0000000000e+00 -7.2202467757e+02 7.2202467758e+02 2.5500000000e-03 0.0000e+00 -1.0000e+00
      -13  1    1    2    0    0 +2.2324755210e+01 +4.1376014815e+01 -7.0091459273e+01 8.4399011393e+01 1.0566000000e-01 0.0000e+00 -1.0000e+00
       13  1    1    2    0    0 -6.6319869426e+01 +2.8998190773e+01 -1.4484818526e+02 1.6192661327e+02 1.0566000000e-01 0.0000e+00 1.0000e+00
      -13  1    1    2    0    0 +4.8714833397e+01 +5.0786980478e+00 -1.4016657756e+02 1.4847763736e+02 1.0566000000e-01 0.0000e+00 1.0000e+00
       13  1    1    2    0    0 -4.7197191813e+00 -7.5452903637e+01 -3.4295302211e+02 3.5118684906e+02 1.0566000000e-01 0.0000e+00 -1.0000e+00
<mgrwt>
<rscale>  0 0.26308656E+03</rscale>
<asrwt>0</asrwt>
<pdfrwt beam="1">  1        2 0.18050610E+00 0.26308656E+03</pdfrwt>
<pdfrwt beam="2">  1       -2 0.59913608E-02 0.26308656E+03</pdfrwt>
<totfact> 0.30663139E+03</totfact>
</mgrwt>
</event>
<event>
 6      1 +1.8175624e-03 2.03877000e+02 7.81860800e-03 1.14650900e-01
       -2 -1    0    0    0  501 -0.0000000000e+00 +0.0000000000e+00 +1.0080691284e+02 1.0080691287e+02 2.5500000000e-03 0.0000e+00 -1.0000e+00
        2 -1    0    0  501    0 +0.0000000000e+00 -0.0000000000e+00 -1.0308280260e+02 1.0308280263e+02 2.5500000000e-03 0.0000e+00 1.0000e+00
      -13  1    1    2    0    0 -2.5298088293e+01 -2.3790991306e+01 +1.4866714238e+01 3.7776115402e+01 1.0566000000e-01 0.0000e+00 -1.0000e+00
       13  1    1    2    0    0 -2.4128041826e+00 -4.1000006632e+01 +6.3253263717e+00 4.1555301535e+01 1.0566000000e-01 0.0000e+00 1.0000e+00
      -13  1    1    2    0    0 -2.7434166870e+01 +4.0751404910e+00 -3.1705762371e+01 4.2124895412e+01 1.0566000000e-01 0.0000e+00 -1.0000e+00
       13  1    1    2    0    0 +5.5145059347e+01 +6.0715857447e+01 +8.2378319955e+00 8.2433403156e+01 1.0566000000e-01 0.0000e+00 1.0000e+00
<mgrwt>
<rscale>  0 0.20387701E+03</rscale>
<asrwt>0</asrwt>
<pdfrwt beam="1">  1        2 0.25770701E-01 0.20387701E+03</pdfrwt>
<pdfrwt beam="2">  1       -2 0.25201728E-01 0.20387701E+03</pdfrwt>
<totfact> 0.28669183E+03</totfact>
</mgrwt>
</event>
<event>
 6      1 +1.8175624e-03 2.09822000e+02 7.81860800e-03 1.14170700e-01
        2 -1    0    0  501    0 +0.0000000000e+00 +0.0000000000e+00 +4.1851457844e+02 4.1851457844e+02 2.5500000000e-03 0.0000e+00 -1.0000e+00
       -2 -1    0    0    0  501 -0.0000000000e+00 -0.0000000000e+00 -2.6298526788e+01 2.6298526912e+01 2.5500000000e-03 0.0000e+00 1.0000e+00
      -13  1    1    2    0    0 +2.6297952016e+01 -5.1128804317e+00 +9.8553955673e+01 1.0213039298e+02 1.0566000000e-01 0.0000e+00 -1.0000e+00
       13  1    1    2    0    0 -1.8064164850e+01 +1.7565292337e+01 +9.0039137608e+01 9.3498187211e+01 1.0566000000e-01 0.0000e+00 -1.0000e+00
      -13  1    1    2    0    0 +6.5920081630e+01 +5.4131849573e+00 +1.1082586837e+02 1.2906255846e+02 1.0566000000e-01 0.0000e+00 1.0000e+00
       13  1    1    2    0    0 -7.4153868797e+01 -1.7865596863e+01 +9.2797090001e+01 1.2012196671e+02 1.0566000000e-01 0.0000e+00 1.0000e+00
<mgrwt>
<rscale>  0 0.20982199E+03</rscale>
<asrwt>0</asrwt>
<pdfrwt beam="1">  1        2 0.10462864E+00 0.20982199E+03</pdfrwt>
<pdfrwt beam="2">  1       -2 0.65746319E-02 0.20982199E+03</pdfrwt>
<totfact> 0.55047537E+03</totfact>
</mgrwt>
</event>
</LesHouchesEvents>
